LAMMPS (8 Feb 2019)
Processor partition = 0
echo both

include		in.partitions
variable p_id world   0
include		in.temp
variable	temperature equal 2000.0
variable	tempDamp equal 0.1 # approx 0.1 ps
include		in.pressure
variable	pressure equal 300000.
variable	pressureDamp equal 1.0
include 	in.seed
variable	seed world 74581
units		metal
include		in.box
read_data	data.equil.${p_id}
read_data	data.equil.0
  orthogonal box = (0.192254 0.192254 0.192254) to (15.9917 15.9917 15.9917)
  1 by 2 by 3 MPI processor grid
  reading atoms ...
  256 atoms
  reading velocities ...
  256 velocities

variable 	mass equal 26.981539
mass            1 ${mass}
mass            1 26.981539
include 	in.setup
variable	out_freq equal 500
variable	out_freq2 equal 500

neigh_modify    delay 10 every 1
include		in.al
### Argon Potential Parameters ###
pair_style 	eam/alloy
pair_coeff 	* * Al99.eam.alloy Al

timestep	0.002 # According to Frenkel and Smit is 0.001

thermo          ${out_freq}
thermo          500
thermo_style 	custom step temp pe press lx


restart 	${out_freq} Restart.lmp.${p_id} Restart2.lmp.${p_id}
restart 	500 Restart.lmp.${p_id} Restart2.lmp.${p_id}
restart 	500 Restart.lmp.0 Restart2.lmp.${p_id}
restart 	500 Restart.lmp.0 Restart2.lmp.0



# NPT

include		in.dump
dump            myDump all atom ${out_freq2} dump.na.${p_id}
dump            myDump all atom 500 dump.na.${p_id}
dump            myDump all atom 500 dump.na.0
dump            myDcdDump all dcd ${out_freq2} out.${p_id}.dcd
dump            myDcdDump all dcd 500 out.${p_id}.dcd
dump            myDcdDump all dcd 500 out.0.dcd
dump_modify	myDump append yes
dump_modify     myDcdDump append yes


timer 		timeout 23:50:00 every 1000
New timer settings: style=normal  mode=nosync  timeout=23:50:00

fix             1 all plumed plumedfile plumed.start.dat outfile plumed.out.${p_id}
fix             1 all plumed plumedfile plumed.start.dat outfile plumed.out.0
fix             2 all nph iso ${pressure} ${pressure} ${pressureDamp}
fix             2 all nph iso 300000 ${pressure} ${pressureDamp}
fix             2 all nph iso 300000 300000 ${pressureDamp}
fix             2 all nph iso 300000 300000 1
fix             3 all temp/csvr ${temperature} ${temperature} ${tempDamp} ${seed}
fix             3 all temp/csvr 2000 ${temperature} ${tempDamp} ${seed}
fix             3 all temp/csvr 2000 2000 ${tempDamp} ${seed}
fix             3 all temp/csvr 2000 2000 0.1 ${seed}
fix             3 all temp/csvr 2000 2000 0.1 74581
fix		4 all momentum 10000 linear 1 1 1 angular

run             5000000 upto # 10 ns
Neighbor list info ...
  update every 1 steps, delay 10 steps, check yes
  max neighbors/atom: 2000, page size: 100000
  master list distance cutoff = 8.28721
  ghost atom cutoff = 8.28721
  binsize = 4.1436, bins = 4 4 4
  1 neighbor lists, perpetual/occasional/extra = 1 0 0
  (1) pair eam/alloy, perpetual
      attributes: half, newton on
      pair build: half/bin/atomonly/newton
      stencil: half/bin/3d/newton
      bin: standard
Per MPI rank memory allocation (min/avg/max) = 4.002 | 4.065 | 4.377 Mbytes
Step Temp PotEng Press Lx 
       0    2414.0258   -736.96035    191436.69    15.799491 
     500    1931.0099   -714.55829    281773.35     15.37643 
    1000    1983.7303   -710.77855    289114.14    15.335974 
    1500    1998.0602   -706.49839    306206.75    15.264167 
    2000    1846.0086   -703.92598    314642.35    15.254904 
    2500    2180.4432   -701.44077    310710.26    15.263438 
    3000    2061.1039   -698.77529    330191.64    15.188569 
    3500    1972.2516    -708.9823    309137.58    15.255509 
    4000    2000.1695   -702.54768    311208.32    15.272055 
    4500    2019.3779   -707.71415    298178.04    15.299013 
    5000    2022.3965   -718.46309    291962.55    15.322673 
    5500    2125.0764   -711.87088    287010.78    15.375986 
    6000    1968.0166   -722.48894     274368.8    15.379142 
    6500     2123.288   -710.60922    288443.58    15.345962 
    7000    1974.1763   -712.84037    298362.87    15.300101 
    7500    2018.0896   -709.26486     293767.3    15.307765 
    8000     1981.679    -704.2498    307228.46    15.283122 
    8500    1948.2339    -706.0547    307495.36    15.261778 
    9000    1978.9013    -710.4316    304824.83    15.269325 
    9500    1932.4819   -709.63921    293452.83    15.304479 
   10000    2013.6397   -714.63464    287355.49     15.33156 
   10500    1911.1331   -715.97655     293973.9    15.297821 
   11000    2086.1526   -724.85176    270333.35    15.379163 
   11500    1931.8308    -717.4655     287937.9     15.32562 
   12000     1965.195   -712.67988    299377.33    15.295237 
   12500    1838.1534   -707.09554    301664.18    15.263927 
   13000     2152.375   -708.54895    307554.48    15.280101 
   13500    2224.4494   -703.67382    306704.88    15.279732 
   14000    2204.1481   -713.37719    302948.99    15.308558 
   14500    2121.2659   -711.92662    294686.48     15.33975 
   15000    1960.9785    -712.2968    297800.21    15.322741 
   15500    1889.7049   -718.21638    280218.52    15.375447 
   16000    2075.9775   -722.71017    277694.44     15.37406 
   16500    1971.2263   -717.14582    295199.27    15.285429 
   17000     2048.621    -704.4814    300249.66    15.305913 
   17500    2127.5966   -708.67057    301441.68    15.276798 
   18000    1887.0272   -714.68459    289649.93    15.310904 
   18500    2046.3953   -718.24243    299916.96    15.263672 
   19000    2015.1256   -714.08243    297560.26    15.290938 
   19500    1943.5485    -705.0242    301263.83    15.278302 
   20000    1970.6605   -707.34146    297705.38    15.295335 
   20500    2140.1249   -710.77358    304093.61    15.274711 
   21000    2098.5598   -714.92655    291057.34     15.33475 
   21500    2078.0085   -716.84627    287853.03    15.356089 
   22000    2089.3479   -718.34127    287509.75    15.335627 
   22500    1976.5508   -714.96186     287777.2    15.343626 
   23000    1921.6097   -713.51456    292277.74    15.296454 
   23500    2077.0576   -713.91493    302234.29    15.257773 
   24000    1915.2058   -709.38246    305028.61    15.235906 
   24500    2002.3126    -706.3052     301307.5    15.297434 
   25000    2153.2785   -706.90746    306068.82    15.270532 
   25500    2196.3367   -717.62171    290889.49    15.301794 
   26000    2094.4445   -724.62241    280891.73    15.313683 
   26500    1921.8599   -723.27851    275896.14    15.359659 
   27000    1949.7679   -718.61641     284752.7    15.316251 
   27500    1930.7488   -711.92164    299075.61    15.271501 
   28000    2061.0881   -715.81155    287774.68    15.293786 
   28500    1965.4639   -713.32068    294442.12    15.303401 
   29000    2023.5954    -713.7484    284684.14    15.271154 
   29500    2063.0432   -718.33192    296403.01    15.280686 
   30000    1798.1012   -716.44438    304580.79     15.24061 
   30500    1882.5694   -708.62469    307781.69     15.22066 
   31000    1993.9932   -709.49383    302789.52    15.188817 
   31500    1989.2214   -700.79057    324252.66    15.194704 
   32000    2146.5491   -697.01151    332290.64    15.167378 
   32500    2093.4984   -707.27792    310325.02    15.238494 
   33000    2063.1739   -702.83043    311071.01    15.242715 
   33500    1930.1296   -708.17086     306424.7    15.257839 
   34000    2025.7064   -709.97067    294266.72    15.283815 
   34500    2022.3742   -710.59937    296494.75    15.268354 
   35000    2072.5769   -714.71361    303921.24    15.213077 
   35500     2083.585   -707.27856    319069.37    15.167283 
   36000    1877.6147   -704.92523    318999.07    15.185149 
   36500    2037.0723   -711.25963    307587.38    15.202058 
   37000    2033.3436   -713.33101    294498.42    15.288241 
   37500    2020.8901   -717.52496    282146.45    15.321546 
   38000    2139.0803   -737.08601    283980.59    15.305267 
   38500    2163.8189   -737.38108    300203.63    15.255562 
   39000    1981.9753   -753.02611    286083.56    15.253773 
   39500    1978.8366   -742.02835    298607.56    15.234353 
   40000    1987.5097    -745.1787    296296.45    15.230871 
   40500    2164.2714   -742.03221    318034.05    15.167482 
   41000    2124.3508   -750.58766    303242.01    15.197974 
   41500    1964.9752   -749.62449    307957.95    15.171101 
   42000    2081.7193    -748.4257       305432    15.191745 
   42500    1953.3036   -736.97743    318653.83    15.158159 
   43000    2027.8284   -750.78985    295164.69    15.215296 
   43500    2043.6982   -749.11097    287202.27    15.269519 
   44000      2009.28   -744.27237    293875.52    15.245334 
   44500    1751.5899   -743.77136    306589.15    15.183524 
   45000    1958.6785   -748.08484    302750.75    15.204797 
   45500    2074.9501   -757.34817    277868.81    15.279855 
   46000    2216.6164   -752.26633     278263.3     15.29116 
   46500    2258.4075    -747.9428    301618.24      15.2163 
   47000    1921.1497   -740.83622    309472.72    15.186344 
   47500    2026.3044   -741.14276    314680.73    15.163308 
   48000     1802.636   -742.99269    300131.02    15.210546 
   48500    1960.6318   -752.49519    283916.03    15.265964 
   49000    1996.3938   -745.33025    296200.84    15.244864 
   49500    1849.4291   -755.47784     292968.6    15.221719 
   50000    1965.9824   -747.56516    302452.38    15.208645 
   50500    2051.5266    -749.2794    299261.18    15.216897 
   51000    2116.5517   -738.65783    306476.22    15.210486 
   51500    2023.7437   -744.33522    313515.54    15.153108 
   52000    2149.1923   -733.01862    311457.36    15.206844 
   52500    1977.9484   -759.72516    278683.96    15.274733 
   53000    1963.7731   -743.19507    295689.61    15.250106 
   53500    1960.2519   -746.35313    292946.64    15.240718 
   54000    1956.2597   -745.29517    310001.45    15.170929 
   54500    1983.1907   -741.15665    317774.23    15.154887 
   55000    1959.0536   -742.13163    295218.36    15.249746 
   55500    2001.9045   -749.63309    271470.43     15.34854 
   56000    2122.6933     -742.479    294315.63    15.253457 
   56500    2220.4733   -742.87366     304092.6    15.216627 
   57000    2300.7306   -749.92908    304426.92    15.206052 
   57500    2026.7048   -753.35186    292259.59    15.236237 
   58000    1898.9955   -747.76114    274910.69    15.308371 
   58500    2068.9508    -741.1461    295647.82    15.262805 
   59000    1896.8281   -732.62263    312579.68    15.198821 
   59500     1933.724   -738.98687    298548.81    15.244597 
   60000    1838.5527    -735.1616    313231.55    15.189651 
   60500    2040.4735   -743.48583    302204.35    15.208785 
   61000    2025.6191   -742.36056    294461.58     15.25246 
   61500    2139.6024   -757.02084    291271.89    15.235555 
   62000    2098.3882   -742.33176    293791.65    15.266882 
   62500    1977.8933   -739.56432    296661.44    15.248948 
   63000    1990.3406   -739.42848    297447.21    15.256327 
   63500    2044.3051   -738.15317    303320.77    15.219034 
   64000    1836.0636   -735.13341    303629.88    15.216132 
   64500    1899.4327   -737.62625    301751.75    15.233966 
   65000    2030.9744   -745.26607    298764.76    15.236034 
   65500    2191.1189   -728.72825    328147.21    15.145991 
   66000    1969.3319   -732.73699    312277.53    15.176974 
   66500    2038.1844   -743.37004    302035.37    15.225732 
   67000    1953.5398   -743.15191    299287.86    15.235228 
   67500    1879.1214   -743.41966    283254.46    15.293721 
   68000    2097.0837   -751.11856    266979.13    15.351213 
   68500    2014.0564   -743.55985    295192.25    15.252183 
   69000    1914.1418    -730.9234    308136.14    15.221713 
   69500    2064.8348   -732.03104    307727.44     15.18703 
   70000     2306.495   -735.62968    321334.04    15.185571 
   70500    2032.4018   -748.92173    286324.75     15.26938 
   71000     1973.248   -742.95438    295449.77    15.257631 
   71500    2071.6107   -743.47965    290884.02    15.255811 
   72000    2082.2965   -754.60002    294173.97    15.219669 
   72500     1873.501    -747.6311    274576.14    15.322569 
   73000    2162.3351   -744.95379    285422.43    15.299126 
   73500    2066.2615   -734.40308    304177.19    15.239431 
   74000    2086.1759   -733.54402    305850.76    15.227404 
   74500    2117.4719   -732.79508    319573.02    15.169505 
   75000    2033.7578   -726.96463    331424.95    15.141174 
   75500     1928.165   -740.80196    306926.22    15.224739 
   76000    1855.7595   -740.15793    294764.31    15.261485 
   76500    2003.3486   -741.33804    291151.37    15.248577 
   77000    2015.4395   -735.85345    303993.14    15.214759 
   77500    1936.5152   -727.87762    331235.24     15.09777 
   78000    2134.6446   -728.71066    313349.81    15.217777 
   78500    1961.7303   -739.06369    297042.61    15.256295 
   79000    1922.9638   -740.57628    287187.85    15.291555 
   79500    1878.9173   -741.64376     282450.7    15.307435 
   80000    1972.7213   -742.55775    282619.39    15.318285 
   80500    2181.1396   -739.46755    304080.86    15.244241 
   81000    2083.9221   -733.46588    308792.98     15.20217 
   81500     2047.778   -734.95107     308198.9    15.219061 
   82000    2029.2781   -736.53102    300460.86    15.220967 
   82500    1916.4096   -747.50207    278241.86    15.320375 
   83000    2123.5757   -743.32971    274722.52    15.337745 
   83500    1950.3956   -745.03944    286565.21     15.28426 
   84000    1846.2395   -742.34522    296020.72    15.239906 
   84500    2029.2775   -736.38109    306231.24     15.23805 
   85000    2066.7226     -731.253     304000.4    15.238162 
   85500    2299.5393   -734.01561    302308.04    15.249124 
   86000    1857.1106   -728.16746    317454.35    15.174835 
   86500    2095.9907   -736.62886    308954.58    15.202658 
   87000    2145.0079   -730.86204    295659.28     15.27195 
   87500     1878.536   -726.12748    308136.35    15.226215 
   88000     2045.798   -729.81054    297772.24    15.261295 
   88500    1852.2564   -744.42501    285182.45    15.285807 
   89000     2096.944   -733.80681    301038.88    15.250765 
   89500    1944.4507   -736.89825    298614.38    15.268051 
   90000    2120.9986   -740.24676     296303.6    15.262264 
   90500    2018.6773   -730.65825    294029.44    15.281043 
   91000    1850.6543   -730.33861    305623.39    15.239692 
   91500    1846.8466   -746.97898    312893.72     15.13882 
   92000    2011.9853   -747.09489     307867.8    15.185027 
   92500    2041.3823   -736.70256    294014.09    15.280557 
   93000    1977.8217   -736.22147    284358.11    15.305624 
   93500    2010.8555   -741.05796    287856.89    15.277487 
   94000     2002.284   -734.17131    306762.19    15.244804 
   94500    2102.3908   -741.67373    301379.28    15.242577 
   95000    2064.3206   -732.09449     306047.9    15.238956 
   95500    2001.9211   -736.57426    288595.72     15.30051 
   96000     2146.624    -740.4795    281620.48    15.327142 
   96500    1886.4415    -738.9703     286290.5    15.302589 
   97000    2030.0309   -733.23815    300256.34    15.275631 
   97500    2085.5007   -734.61511    303388.16    15.234172 
   98000    2162.7257   -725.55171     320963.8     15.19215 
   98500    2203.9188   -722.99865    339407.84    15.127889 
   99000    1994.8321   -726.82116    308918.71    15.199422 
   99500    2118.8616   -736.63243    289005.04    15.287871 
  100000    2018.3931   -734.41959    291786.24    15.291682 
  100500    1848.5173   -740.92132    282658.81    15.322264 
  101000    1967.3127   -741.96654    289648.75    15.261399 
  101500    1967.2626   -727.80273    309281.09    15.222472 
  102000    1802.9355   -714.92322    336603.94    15.104453 
  102500    2006.1797   -725.65745    313968.54    15.191163 
  103000    1977.7373   -729.64021    296799.01    15.267557 
  103500    1921.2552   -737.25377    290207.61    15.281089 
  104000    1974.6939   -735.52008     298200.2     15.25839 
  104500    1968.4162   -723.40074    312165.01    15.205522 
  105000     2008.338   -727.71988    312273.25    15.198919 
  105500    2053.9867   -728.89524    301858.12    15.244334 
  106000    1921.8342   -733.17414    297125.47    15.255866 
  106500     1946.474   -729.96041    294310.02    15.268665 
  107000     2136.142   -738.49198    301720.07    15.242683 
  107500    1883.7889   -724.80398    313273.09    15.199502 
  108000    2200.3559   -720.12523    312065.06    15.216282 
  108500    2092.6118   -735.25846    302987.75    15.234664 
  109000    2089.5398   -731.97493    302365.84    15.242273 
  109500    2262.1238   -741.67908    304797.93    15.235342 
  110000    1911.9618   -732.33134    302269.55    15.243641 
  110500    2114.5469   -740.55463     285793.8    15.319649 
  111000    1944.1198   -731.31768    303130.22     15.25262 
  111500    2114.2937   -732.80683    306669.71     15.22949 
  112000     1918.553   -724.15284    306054.88    15.231469 
  112500    1873.0399   -725.24722    304770.04    15.237738 
  113000    1852.5793   -731.43187     293099.8    15.280406 
  113500    2018.1704    -734.0969    293273.11    15.288191 
  114000    2050.8246   -742.37584    285037.42    15.282775 
  114500    2254.6618    -736.1781    305007.45    15.236181 
  115000    2034.1986   -724.35977    307718.44    15.266268 
  115500    2130.0725   -737.15746    290849.66    15.289487 
  116000    2054.3123   -723.82938    313851.04    15.202468 
  116500    2057.7039   -725.74149    307272.51    15.220001 
  117000     2069.579   -730.19253    308587.59    15.220634 
  117500    1858.8382   -732.47415     300330.7    15.243631 
  118000    1964.1533    -733.2893    282750.41    15.335663 
  118500    1921.2017   -742.39542    284740.63    15.307491 
  119000    2117.5289   -744.92282    290630.98    15.274273 
  119500    2257.5149   -722.00383    304218.42    15.239878 
  120000    2101.6395   -735.87301    296747.39    15.255721 
  120500    2098.5285   -729.50788    312117.93    15.222202 
  121000    1984.8282   -713.47206    330387.94    15.169175 
  121500    2170.1631   -724.99708    311350.65    15.201786 
  122000    2289.6881    -726.6517    303156.47    15.262835 
  122500    2022.1299   -726.22121    296865.97    15.278691 
  123000     1876.673   -732.12303     282471.6    15.305444 
  123500    2086.3082   -727.10758    295573.35    15.296851 
  124000    2113.5752   -728.23604       300648     15.26747 
  124500     1963.016   -733.57573    305619.53    15.227817 
  125000    1961.1211   -729.64044    305147.73    15.246122 
  125500     2207.219   -722.58511    307112.67    15.257482 
  126000    2097.4333   -723.47141    307386.06    15.227073 
  126500    1920.0053   -723.56181    306070.66    15.215288 
  127000    2076.1934   -721.86327    310749.09    15.211672 
  127500    2016.4184   -724.94118    307327.52    15.221997 
  128000    1903.6804   -738.11624    285217.11    15.312899 
  128500    2004.6962   -727.84946    282576.18    15.345212 
  129000    2012.0228   -734.57367     284639.2    15.305821 
  129500    2093.8238   -731.89278    297607.63    15.264244 
  130000    1801.2423   -724.62984    297298.63    15.289745 
  130500    2063.5725   -726.84553    296342.47    15.294669 
  131000    2029.3439   -725.71621    305793.93    15.229094 
  131500     2013.505   -725.84116    313854.16    15.196543 
  132000    1823.4587   -727.56648    306049.42    15.219441 
  132500    2156.9056   -712.65237    311174.15    15.243588 
  133000    2187.0679   -728.68961    301320.42    15.259817 
  133500    2017.9414   -729.72055    295656.68    15.290885 
  134000    1950.0367   -738.59903    278725.87    15.333671 
  134500    1961.3573   -733.19675    284910.52    15.319469 
  135000    1853.7864   -724.97604    293331.76    15.281486 
  135500    1871.6253   -719.11793    305874.53    15.243673 
  136000    2121.4069   -722.68095    304451.11    15.257982 
  136500    2059.5038   -728.13114    311058.92    15.223682 
  137000     2104.655   -722.13049    311509.97    15.221876 
  137500    2044.8491   -707.01813    332448.72    15.135094 
  138000    1938.6021   -706.05836     333594.4    15.163826 
  138500    1996.2803   -724.27672     305642.8    15.239918 
  139000    2017.4536   -726.34552    294070.77    15.297607 
  139500    1846.4343   -732.50464    289021.98    15.304779 
  140000    1895.2738   -723.08632    286824.43    15.315865 
  140500    1985.8669   -730.32184    277989.32    15.324816 
  141000    2132.0665   -735.20486     294381.7    15.270925 
  141500    1895.8853   -722.80644    292988.46    15.293891 
  142000    2055.8781   -733.64227    281377.97      15.3337 
  142500    2071.6017   -726.98896    293695.08    15.282938 
  143000    2095.7585   -730.02176    296449.44    15.306785 
  143500    1802.0878   -732.39633     276910.7    15.335499 
  144000    2073.9664   -740.90187     274710.7     15.35791 
  144500     2031.834   -725.67863    295857.69    15.289465 
  145000    2166.5442   -725.99157    307115.52      15.2275 
  145500    2056.1389   -718.44082    313433.22    15.210661 
  146000    2066.8138   -727.80333    308410.19    15.219656 
  146500    2202.3767     -731.408    306890.99     15.24465 
  147000     2130.327   -736.17354    292001.92    15.267289 
  147500    2085.5557   -723.93611    302077.45    15.244771 
  148000    2040.7463    -723.9236    313813.81     15.20674 
  148500    2011.5552   -718.30299    296418.84    15.270597 
  149000    1669.7102   -732.24351    280850.84    15.328576 
  149500    1945.5553   -731.25815    274675.06    15.348138 
  150000    1932.5396   -730.77711    294904.52    15.279327 
  150500    2067.0011   -728.70141     295289.1    15.277931 
  151000    1955.4553   -709.74029    321289.24     15.16887 
  151500    2049.9897   -710.41177    307355.08    15.240888 
  152000    2261.1331   -725.35802    299297.55    15.266687 
  152500    2228.8621   -728.77511    295430.54    15.276445 
  153000    2015.7063   -716.56005    324726.79    15.161458 
  153500     2048.344    -719.3868    319054.25    15.181086 
  154000    1996.4721   -719.62828    313085.57    15.224046 
  154500    1850.2072   -731.36332    302397.75    15.214328 
  155000    1988.8347   -719.62346    304259.68    15.248402 
  155500    2076.0726   -717.56352    310831.67    15.220307 
  156000     1887.288   -736.73844    299522.21    15.256552 
  156500    1974.1582   -720.87874    294927.08    15.255843 
  157000    1977.5561   -726.00893    292591.56    15.279187 
  157500    2146.6062   -725.48018    287963.31    15.301075 
  158000    1995.3027   -731.78634    295054.07    15.280931 
  158500    1916.0456   -727.98021    297692.28    15.275963 
  159000    2302.8701    -712.1486    314889.21    15.223444 
  159500    2093.2478    -719.0481    315033.32    15.197169 
  160000    1855.8063   -708.97524    308611.77    15.213012 
  160500    1930.4308   -716.54403    313080.17    15.242767 
  161000    2138.0114   -716.76628    310493.49     15.22667 
  161500    2154.1591   -709.79064    303638.23    15.256849 
  162000    1871.2787   -709.25734    306410.81    15.261563 
  162500    2005.4437    -707.7821    308423.38    15.215002 
  163000    2160.5104   -715.02719    310367.01    15.234449 
  163500    1977.8873   -714.79915    300113.04    15.261408 
  164000    1971.6804   -709.80492    306749.74    15.237875 
  164500    2051.6513     -710.877     317308.6    15.188334 
  165000    2040.6377   -715.23234    323589.12    15.179844 
  165500    1966.0592   -721.65482    311362.25    15.235185 
  166000    2169.9177   -718.48386    291076.36     15.29505 
  166500    1897.0619   -726.91282    294657.08    15.279613 
  167000    1931.9361   -730.51269    286502.61    15.316601 
  167500    1893.7903   -724.65501    270707.21    15.355712 
  168000    1917.5219   -726.41351    270919.35    15.373627 
  168500    2036.4628   -725.07376    295222.71    15.291046 
  169000     1921.141   -721.26031    293729.08    15.294036 
  169500    2137.8415    -725.0185    292449.37    15.289852 
  170000    2050.0588   -720.07289     303419.2    15.245094 
  170500    2040.4199   -722.24022    314143.41    15.218606 
  171000    2057.4649   -706.74897    322046.66    15.208228 
  171500    2084.0664   -714.17251    311040.59    15.247571 
  172000    1791.9695   -712.96033    303959.97    15.258126 
  172500     1810.421   -709.90547    304432.83    15.237463 
  173000    2000.9371   -717.65847    298377.62     15.26763 
  173500    2019.9444   -717.25478    293344.42    15.296843 
  174000    2047.6809   -724.37267    291818.61    15.294757 
  174500    1986.7865   -713.69994    294612.61    15.280264 
  175000    2167.8964    -719.5637    306759.51    15.245043 
  175500    1952.6808    -720.2418    303452.07    15.240116 
  176000    2093.2013   -727.63339    304678.34    15.244571 
  176500    1914.3816   -715.60306    306242.54    15.266793 
  177000     1988.192   -713.33154    305487.54    15.223003 
  177500    1963.8838   -708.87111    318160.14    15.207528 
  178000    1947.1103   -708.46198    306670.86    15.231699 
  178500    2049.8895   -710.29518    303015.27    15.252132 
  179000    2059.5698   -712.03741    306351.73    15.257127 
  179500    2114.8332   -712.57877    312903.74    15.219802 
  180000    2194.9879   -710.67832    307560.12    15.241957 
  180500    2056.1643   -721.35788    286126.63    15.284493 
  181000    2178.4299   -711.18591     308805.5    15.235791 
  181500    2030.5718   -699.45174    321430.49    15.202006 
  182000    1894.7994   -706.43539    312785.85    15.221722 
  182500    2024.8993   -722.63033    301185.61    15.245352 
  183000    1969.0177   -722.95869    301084.63    15.251591 
  183500    2096.8319    -732.0706    291422.61    15.282829 
  184000    1979.8373   -723.35777    304952.03    15.254044 
  184500    2033.0669   -716.03699    312808.82    15.228931 
  185000    2040.6162   -710.26657    312242.32    15.211284 
  185500    2052.7064   -718.10361    302388.91    15.241969 
  186000    1825.2507   -722.48965    305696.16    15.228405 
  186500    1938.3086   -724.88354    298813.56    15.253727 
  187000    1925.8262   -733.15142    291622.35    15.293451 
  187500    1984.6265    -737.8784    282701.68    15.315861 
  188000     1881.354   -723.91558    290425.01    15.294749 
  188500    2016.8637   -716.67186    291150.76    15.312484 
  189000    2043.3679   -732.85773    274160.92    15.349779 
  189500    2085.8093   -725.84464    279249.65    15.326428 
  190000    2216.7061   -720.85201    290519.33    15.318314 
  190500    2044.5101    -717.9049    302536.35    15.227372 
  191000    2074.9822   -716.23177    299904.21    15.248456 
  191500    2142.7266   -714.88262    303065.73    15.230437 
  192000    1922.3902   -707.71408    306334.04    15.218733 
  192500    2109.6179   -708.49733     306461.1    15.217516 
  193000    1913.6057   -707.57258    312068.29    15.247438 
  193500    1793.2288   -707.78931    307956.06    15.227141 
  194000    1963.3925   -708.35057    313967.82    15.246037 
  194500    2015.7801   -708.77751    307007.67    15.241006 
  195000    1847.3706   -705.67911    295085.02    15.303387 
  195500    1864.8944   -715.74186    283089.38     15.31862 
  196000    2001.6239   -718.71874    281347.79    15.369889 
  196500     1905.239   -713.92838    290918.09    15.328001 
  197000     1913.552   -706.51504    292185.54    15.297676 
  197500    2033.7668   -710.37638    296671.23    15.308188 
  198000     1873.046   -712.72715    297032.04    15.266845 
  198500    1884.8399   -706.84173    304417.03    15.263616 
  199000    2040.6026   -710.48215    304361.96    15.259125 
  199500     2060.401   -702.20991    303962.17    15.242098 
  200000    2049.3225     -707.126     307188.2     15.23416 
  200500    2039.6072   -709.41592    301543.35    15.223549 
  201000    2104.5444    -713.8235    301580.19    15.274269 
  201500     2125.011   -712.72285    297501.73     15.29847 
  202000     2176.057   -710.27251    308664.12    15.233188 
  202500    2068.1256   -708.53206    310035.89    15.233262 
  203000    2015.2246   -713.85601    291009.24    15.305566 
  203500    2153.6623   -717.40896    284704.91    15.312592 
  204000    2089.4738   -721.35372    275793.32    15.339903 
  204500    2116.6628   -726.24129    271545.18    15.363336 
  205000    1887.6043   -708.93191    298653.52    15.286258 
  205500    2069.1608   -704.69642    307403.86    15.278369 
  206000    2086.9195   -718.65486     298267.8    15.258192 
  206500    2034.1474   -705.22251    311002.95     15.23364 
  207000    1993.2177   -699.20537    314128.79    15.201169 
  207500    1973.7629    -717.0787    312601.29     15.18836 
  208000    1776.0431    -716.2182    298045.99    15.274983 
  208500    1900.9451   -728.97956    286991.57    15.315121 
  209000    2179.9498   -736.46671    273603.43    15.366396 
  209500    1968.2995   -719.96176    285424.78    15.336389 
  210000    2085.4968   -717.43936    301007.42    15.268194 
  210500    2118.4818   -716.76762    301085.04    15.282147 
  211000    1828.1193   -717.46064    292768.14    15.305227 
  211500    1984.6753   -718.25812    285928.73    15.275877 
  212000    1732.8856   -722.22148    290628.38    15.309674 
  212500    1969.9209   -717.12692    293393.86    15.286571 
  213000    2087.6426   -716.14699    311631.58    15.238773 
  213500    2040.4027   -717.61081     307044.6    15.253687 
  214000    2056.3405   -716.28571    303222.88    15.248475 
  214500    2066.8665   -720.88418    297521.27    15.259372 
  215000    2122.6317   -716.17617     302457.1    15.253131 
  215500     1709.408   -705.23073    305030.99    15.228667 
  216000    1900.7589   -713.12887     300253.5    15.273784 
  216500    1844.1632   -719.93184    290527.47    15.302454 
  217000     2059.851   -719.49642    289309.22    15.275684 
  217500    1923.3498   -722.81612    291346.73        15.31 
  218000    2073.7438    -727.5426    282600.78    15.306164 
  218500    1970.2731   -717.08311    299765.45    15.279806 
  219000    2202.5322   -716.44871     304973.6    15.256692 
  219500     1890.471   -711.75862    307171.32    15.225147 
  220000     2110.174   -703.04897    313580.29    15.223938 
  220500    2232.9792   -711.44585    302203.94    15.263184 
  221000    2028.6796   -710.91128    292976.63    15.311717 
  221500     1962.278    -713.0048    300854.38    15.256343 
  222000     2064.389   -719.27665    297900.39     15.24521 
  222500    2038.7648   -703.91344    308503.75    15.257475 
  223000    2136.1761   -720.25095    306406.05    15.251796 
  223500    1865.6914   -699.51715    330524.48    15.156776 
  224000    1924.2577   -702.39921    310310.32    15.226195 
  224500    2158.9947   -716.73954    306258.23    15.262558 
  225000    1811.5836   -727.51169    293168.34    15.282334 
  225500    1952.4604   -717.14167    303659.26    15.256797 
  226000    2016.8819   -707.13286    306283.99     15.24915 
  226500    1979.2439   -711.79362    315977.57    15.231751 
  227000    1916.7123   -713.17401    304174.92    15.240322 
  227500    1962.2408   -707.58481    321731.68    15.225148 
  228000    1995.6289   -713.31251    326987.54    15.169155 
  228500    1832.2011   -718.88698    314677.29    15.176745 
  229000    1971.6748   -721.19155    300781.85    15.247207 
  229500     2064.335   -731.58171    310196.69    15.220035 
  230000    2044.6097   -733.60758    293173.91     15.30152 
  230500    1826.2236   -722.05121    297531.85    15.274318 
  231000    1987.3049   -722.98479    293284.19    15.271653 
  231500    1911.1571   -715.13064     310525.9    15.218315 
  232000    2159.7446   -711.10156    311575.71    15.246972 
  232500     2082.616    -705.9394    328299.27    15.191722 
  233000    1990.1864   -718.34162    313145.48     15.22351 
  233500    1954.2952   -711.06413       310896    15.211621 
  234000    1827.9128   -722.45294     295473.3    15.279517 
  234500    2230.0686   -728.90614    279126.26    15.364798 
  235000    1965.5502   -717.66976    294548.75    15.270319 
  235500    1927.3151   -720.39305     300696.3    15.254466 
  236000    1997.1362   -713.75737     299346.1    15.294533 
  236500    2015.9504   -730.05563    278924.56    15.355665 
  237000    1951.7244   -727.33602    274389.85    15.360941 
  237500    1869.3643   -714.23088    295776.47    15.300024 
  238000    1965.2478   -718.82713    287718.74    15.298961 
  238500    1937.9991   -706.55572    308899.29    15.243871 
  239000    2087.7883   -713.12058    298138.87    15.265586 
  239500     1962.919   -720.80462    286170.08    15.328951 
  240000    1959.9304   -711.68129    295602.38    15.287439 
  240500    1935.6985   -713.93603    291602.92    15.318931 
  241000    1982.5601   -705.20855     307554.6    15.221453 
  241500    2016.5204   -712.03442    309156.19    15.190513 
  242000    2155.5911   -715.55285    303530.68    15.216917 
  242500     1814.844   -715.46256    294702.29    15.295762 
  243000    2142.6682   -722.16132    294378.06    15.274934 
  243500    2053.4549   -723.97334    287797.32    15.319928 
  244000    1983.4859   -724.03301    290171.05    15.292519 
  244500    2049.0875   -712.22707    311523.85    15.219808 
  245000    1976.3383   -708.64207    328089.71    15.197792 
  245500    1895.5847   -716.93455    301755.04    15.232804 
  246000    2221.2063   -719.07191    306737.49    15.234795 
  246500     1932.519   -724.34113    300868.63    15.232935 
  247000     1942.873   -722.54153    295113.25    15.274956 
  247500    2036.2539   -730.76085     293589.7    15.281681 
  248000    1937.4526   -720.32892     294459.1    15.274867 
  248500     2134.928   -727.29356    300220.23    15.268159 
  249000    2006.5066   -723.51548    304247.26    15.264413 
  249500    2053.9784   -728.60442    296617.34    15.272617 
  250000    1957.5952   -714.41603    303181.37    15.266284 
  250500    1936.5182   -704.05739    306992.85    15.241438 
  251000    1886.7514   -711.32046    308498.92    15.223448 
  251500    2046.0741   -712.69855    288351.13    15.270174 
  252000    2054.3534   -704.72913    312209.19    15.220353 
  252500    1884.5807   -708.45609    301864.23    15.272244 
  253000    1979.2828   -703.07038    311826.37     15.22791 
  253500    1968.4477   -710.86129       300870    15.235368 
  254000    1889.0923   -710.70245    297510.34    15.235221 
  254500     1907.602   -709.57239    305659.55    15.233402 
  255000    1828.1554   -706.14236    313214.71    15.177313 
  255500    2047.3541   -718.47758    299630.48    15.262059 
  256000    2014.4915    -708.7035    301633.25    15.301084 
  256500    2122.8314   -715.73944    289203.15    15.340754 
  257000    1927.7244   -716.77205    281140.22    15.328318 
  257500    2058.6711     -720.708    292694.95    15.281748 
  258000    2106.4661   -709.60483    300964.81    15.263849 
  258500    1958.0187   -702.87513    320972.96    15.185094 
  259000    2058.6621   -698.07781    309210.67    15.236408 
  259500    2051.5211   -701.44723    309437.93    15.273424 
  260000    1864.1325   -707.02393    321165.21    15.197493 
  260500    2078.9091   -704.79155    309349.93    15.263083 
  261000    1945.0027   -701.00785    292504.43    15.326856 
  261500     2006.595   -713.60255    301644.24    15.251758 
  262000     2064.832   -711.81019    301900.42    15.250025 
  262500    1985.8261    -709.8492    304895.83    15.259012 
  263000    1924.0007   -707.99846    303043.21    15.278427 
  263500    1981.1555   -708.95961    299797.69    15.273259 
  264000    2082.3224   -711.20579    289335.63    15.244139 
  264500    1942.8932   -707.87955    301880.69     15.22748 
  265000     1889.491   -709.29404    312144.24    15.190982 
  265500    2043.0674   -708.45028    316184.64    15.192834 
  266000    1992.8478   -710.83769    304089.87    15.255598 
  266500    2342.3599   -714.67948    304062.28    15.289749 
  267000    2012.0887   -708.68863    307151.34     15.25038 
  267500    2021.5276   -706.71181     302863.5    15.277711 
  268000     1845.079    -712.3046     290722.3    15.327504 
  268500    1911.7991   -709.69391    283151.16    15.344659 
  269000    1967.0542   -712.43326    294389.31    15.313234 
  269500    1812.0853   -709.29604    297776.36    15.287368 
  270000    1976.6889   -715.16278     292787.6    15.308847 
  270500    1915.7644   -710.31713    299086.73    15.294083 
  271000    2042.8036   -715.18399    284940.78    15.337598 
  271500    1947.8417   -710.42226    289419.71    15.323465 
  272000    1908.0849   -715.67022    273448.09    15.402839 
  272500    1989.2899   -712.33894    294613.31     15.31659 
  273000    2050.1669    -712.2529     297549.6    15.313195 
  273500    2171.9644   -714.20462    289287.03     15.26873 
  274000    1982.5063    -719.8679    291616.64     15.29994 
  274500     2064.459   -717.88248    283310.97    15.338708 
  275000    2031.6486   -718.05791    281225.29     15.34714 
  275500    2037.2088   -710.32186    293151.86     15.29434 
  276000    1958.1683   -708.89839    301949.48    15.287919 
  276500    1924.2792   -716.60537    295359.08    15.305118 
  277000    2059.2825   -716.91766    289399.79    15.317983 
  277500    1906.0069   -716.38573    290904.08    15.310745 
  278000    2007.6447   -716.81276    287640.91    15.323422 
  278500    2085.5862   -728.61677    282777.71    15.333508 
  279000    1905.6358   -733.63707    288260.34    15.309246 
  279500    2077.1417   -728.53679    296357.25     15.27233 
  280000    1920.4114   -742.23716    312464.04    15.173927 
  280500    2051.6664   -752.92224    293288.17    15.230201 
  281000    1909.2034   -754.55243    276825.01     15.29086 
  281500    1919.7253   -757.28875    290613.21    15.219096 
  282000    2007.4823   -746.37082    304808.52    15.200589 
  282500    2180.4646   -747.13416    298029.52    15.222493 
  283000    1862.6917   -721.43382    297155.39    15.260543 
  283500    1946.4707   -739.10671    294777.54    15.261903 
  284000    2003.5418   -756.16047    292623.35    15.215148 
  284500    2037.4165   -743.10728    313026.96    15.158648 
  285000     2035.077   -750.13874    304917.41    15.184726 
  285500    1924.2669   -748.08277    301460.72      15.2067 
  286000    1950.4646    -756.4172    274874.85    15.285744 
  286500    1981.9597   -742.02407    283532.81    15.319133 
  287000    1915.6122   -721.29533    300912.23    15.272249 
  287500    1971.6603   -724.95959    306946.96     15.26052 
  288000     1973.573   -726.39199    313350.84    15.224523 
  288500    2129.1762   -745.59599    297424.19    15.228627 
  289000     2088.595   -731.80918    308447.99     15.21003 
  289500    2047.7521   -716.55706    322825.64    15.201556 
  290000    1966.1325   -709.80109    325419.63    15.162809 
  290500    2121.6869   -728.63775    310734.98    15.201416 
  291000    1809.5898   -742.77537    303314.97     15.19922 
  291500    2097.9102   -758.94126    288905.01    15.228447 
  292000    1822.2738    -744.9862    307869.93    15.173879 
  292500    1896.7904   -742.68472    305248.62    15.202633 
  293000    1921.3319   -753.71562    280415.25    15.284843 
  293500    2104.6142     -752.626    286650.17    15.266464 
  294000    1927.0851   -750.70262     301691.8    15.187292 
  294500    1979.7263   -749.53798    301201.19    15.205089 
  295000    1989.5828   -752.16876    293154.87    15.227373 
  295500    1946.9916   -754.24553    293322.08     15.21848 
  296000    2051.0574   -733.53881    322840.08    15.167359 
  296500    1893.3632   -727.34742    330290.21    15.132666 
  297000    2026.6243   -733.98149    320440.84    15.158826 
  297500    1825.3536   -748.73976    298297.77    15.186441 
  298000    2007.2677   -750.82515    294271.49     15.23886 
  298500    1991.8318   -754.66806    290928.81    15.236656 
  299000    2002.5116   -749.64239    300752.03    15.210081 
  299500    2037.6324   -743.24137    309927.59    15.181004 
  300000    1995.3183   -748.86013    300376.77    15.195515 
  300500     2063.069   -739.26551     313724.5    15.172188 
  301000    1986.7592   -730.91132    316274.17    15.175099 
  301500     2085.081   -725.00915    311094.17     15.23886 
  302000    2005.6449   -734.92695    298289.38    15.239315 
  302500    1941.5556   -716.99775    304096.36    15.252629 
  303000     2079.028   -727.33124    316271.24    15.198285 
  303500    1991.6427   -708.82096     332218.1    15.173425 
  304000    2134.6683   -713.29768    319168.91    15.193147 
  304500    2079.9926   -737.92586    300040.99     15.24929 
  305000    1865.2027   -761.64744    279253.29    15.260237 
  305500    1889.5405   -747.22963    289376.92    15.266909 
  306000     1777.192    -730.5273    300010.65    15.249355 
  306500    1831.1962   -724.69859    313424.25    15.211959 
  307000    1878.3546   -723.51287     299800.1    15.241498 
  307500    2083.6956   -722.36713    299993.73    15.270458 
  308000    2131.9422   -731.79245    317177.49    15.195635 
  308500    2089.5892   -727.55496    294478.96    15.299775 
  309000    1894.9629   -734.38155     294682.7    15.266792 
  309500    2051.6892   -711.95362    309295.49    15.215459 
  310000    1941.2241   -714.18383    315049.96    15.220662 
  310500    2291.3846   -735.29936    295969.14    15.254457 
  311000    1990.3818   -723.63971    301492.74    15.256913 
  311500    2088.2531   -716.00393    302896.24    15.272558 
  312000    2150.1289    -719.7878    318198.02    15.198326 
  312500    1936.0873   -747.26548    300714.47    15.204383 
  313000    1727.6857   -744.14572    284364.96    15.266245 
  313500    1950.1772   -738.26421    284125.31    15.292764 
  314000    2110.8593   -744.95566    303182.62     15.20427 
  314500    2094.3726    -729.9551    309031.16    15.238655 
  315000    1939.8441   -744.60448    299123.64    15.214479 
  315500    2082.7169   -755.04231    293307.05    15.210898 
  316000    2190.0779   -735.51529    300289.15    15.251276 
  316500    1941.0349   -739.09716    313433.78    15.187722 
  317000    2122.2625   -752.58303    287900.71    15.261403 
  317500    1984.9643   -757.22243    279801.16    15.267393 
  318000    1972.3994   -747.30066    295278.58    15.242165 
  318500    2127.4385   -745.86861    310481.27     15.19723 
  319000    2117.3017     -745.422    303022.65    15.221314 
  319500    2148.9744   -742.04537    301430.04    15.235723 
  320000    2154.9885   -746.53171    280080.25    15.311103 
  320500    1893.2591   -719.16745    293999.56    15.284982 
  321000    2040.1977   -725.57126    303001.51    15.264909 
  321500    1902.2428   -726.29947    315454.92    15.214803 
  322000    1999.5783   -729.70632    308617.07    15.233488 
  322500    1946.8247   -709.68923    317117.11    15.206349 
  323000     1873.325   -737.73838    309344.51    15.187712 
  323500    2008.8747   -751.38555    291183.31    15.237577 
  324000    2091.9839   -739.81586    306493.58    15.211405 
  324500     2106.162   -741.57002    303900.03    15.212364 
  325000    2041.1826   -733.15243    304956.97    15.251161 
  325500    1873.2476   -736.75774    298647.68    15.234873 
  326000    2073.3783     -751.499     291133.3     15.23765 
  326500    2030.3581   -744.65466    283011.78    15.299368 
  327000    2221.0885     -751.543    290426.69    15.265533 
  327500     2070.143   -737.00471    303770.14    15.228341 
  328000    2083.1238     -726.994    306402.75    15.236471 
  328500    2042.0048   -728.64788    311990.41    15.229477 
  329000    1937.8453   -720.10027    305837.81     15.25652 
  329500    2047.5067   -732.24764    307154.51    15.214668 
  330000    1999.3426   -747.85093     287158.1    15.267865 
  330500    2078.9573   -730.97951    286606.56    15.310996 
  331000     2072.238   -729.68674    308534.58      15.2342 
  331500    1982.1446    -717.0438    315288.68    15.213057 
  332000    2012.7553   -739.35181    290509.83    15.258758 
  332500    1890.8225   -747.92928    278133.78    15.303453 
  333000    1880.6044   -729.79702    275700.34    15.347624 
  333500     1983.135   -724.68837    293195.57    15.298885 
  334000    1775.5147   -721.59043    280959.15    15.332021 
  334500    1925.1116   -719.38066    289585.99    15.309407 
  335000    1912.8485   -705.36696    301297.06    15.254852 
  335500    1869.7471   -713.09951    302823.19    15.225366 
  336000    1911.6458   -719.96294    301606.91    15.220368 
  336500    1939.5257   -715.63347    300485.78    15.234084 
  337000    2047.8118    -702.7573    313297.87    15.211761 
  337500    2084.5553   -706.92466    307978.17    15.224877 
  338000    2060.1497   -704.11943    310708.14    15.232745 
  338500    1974.9177   -713.76534    304102.26    15.236363 
  339000    1975.7753   -716.59618    290138.42     15.29915 
  339500    2022.0644   -707.09498    298872.21    15.273369 
  340000    2017.0608    -710.5604    297241.06    15.283773 
  340500    2086.2266    -710.2694    310940.21    15.230698 
  341000    1887.9369   -717.86659    305140.38    15.245286 
  341500    1671.6135   -715.55584    303828.41    15.225188 
  342000    1948.5085   -709.81978    316119.36    15.220249 
  342500    2003.0141   -713.20302    303746.48    15.238079 
  343000    2087.2973   -716.53559    308397.89    15.238342 
  343500    2044.6982   -730.24795    301311.77    15.245875 
  344000    1925.5326   -723.50083    300844.89    15.251049 
  344500    1989.1446   -715.08234    293451.86    15.290838 
  345000    2005.5744   -718.56937    297768.37    15.262793 
  345500     1968.322   -712.21574    300905.25    15.247873 
  346000    2085.2658   -709.78728    311614.46    15.207962 
  346500    2033.6587   -707.68026    305937.04    15.243323 
  347000    2129.9462    -718.9827    290980.27     15.29342 
  347500    2020.8377   -712.73899    311246.81     15.22996 
  348000    1946.1809   -700.45637    314375.28     15.20744 
  348500    2220.5851    -701.8323    308803.12    15.238213 
  349000    1970.7465    -703.4678    316421.75    15.207157 
  349500    2062.0471   -707.43288    302855.91      15.2446 
  350000    1957.0991   -704.84702    303946.64    15.261956 
  350500    1962.7944   -710.98232    301294.32    15.264896 
  351000    1989.2612   -716.63761     297553.9    15.250949 
  351500    2048.3451    -728.6323    298731.39    15.252675 
  352000    2114.4608   -717.86251     301297.5    15.268274 
  352500    2244.2043   -736.87183    313033.62    15.201876 
  353000    2060.1432   -739.94041    313388.93    15.173281 
  353500    1918.5989   -736.70163    317630.25     15.16397 
  354000    1888.7112    -746.8145     294906.2    15.226361 
  354500    1986.2795   -726.78767    290242.86     15.29527 
  355000    1986.0115   -728.11834    286113.46    15.318328 
  355500    1945.7986   -730.70466    293095.19    15.293089 
  356000    1916.2395   -730.44367    291635.18    15.291044 
  356500    2059.2213   -728.20223    278043.91    15.341735 
  357000    1831.6386   -730.67176    290097.91    15.294916 
  357500     1862.341   -726.06848     295120.9    15.276245 
  358000     2191.837   -724.10372    297678.73    15.265571 
  358500     1798.487   -726.32249    291354.35    15.281321 
  359000    1941.4053   -723.99117    277935.31    15.343519 
  359500    2001.6312   -722.75432     298327.9    15.291777 
  360000     1944.488   -728.56049    310764.71     15.20298 
  360500    1897.5503   -734.55138    310336.03    15.203491 
  361000    1861.7736   -724.86926    286271.14    15.305051 
  361500    1934.0616   -727.69592    282672.36    15.298244 
  362000    1969.3498   -714.31002     301019.8    15.269429 
  362500    2029.2893   -739.74024    277728.64    15.348864 
  363000    1943.1332    -729.9288    291659.73    15.289661 
  363500    2096.6828   -727.61775    302718.76    15.264557 
  364000    1953.0582   -726.87999    294874.55    15.254467 
  364500    1960.5536   -742.06167    299279.43    15.242451 
  365000    2084.9034   -739.25497    307641.48    15.215749 
  365500    1999.1209   -733.76619    304675.68    15.210068 
  366000    2056.3096   -748.19153     292215.8    15.232192 
  366500    1881.6715   -736.35101    301384.51    15.233998 
  367000    2117.0815   -735.31352    295080.41    15.286667 
  367500    1936.2924   -725.57018    286352.73    15.328081 
  368000    2040.7519   -731.38783    287008.85    15.317511 
  368500    1963.2256   -732.97789    287115.77    15.318359 
  369000    2013.7616   -729.69978    279665.22    15.319281 
  369500    1965.9722   -733.39371    295280.75    15.282502 
  370000    1991.6969   -712.43114    315223.26    15.216807 
  370500    1960.9612   -709.09105    311852.62    15.228852 
  371000    1938.4035   -709.53858    310035.14    15.206445 
  371500    1979.1101   -715.34426     303685.6    15.225515 
  372000    2099.4662   -713.83092    309029.76    15.238013 
  372500    1890.6309   -710.06914     324382.8    15.206092 
  373000    2025.0714   -718.75574    310210.31    15.211345 
  373500    2004.3026   -719.98364    294098.26    15.290974 
  374000    2048.1715    -725.2775    286297.65     15.32517 
  374500    2099.4557   -727.35311    289833.99    15.313702 
  375000    2029.0333   -717.76174     302341.9    15.274472 
  375500     1979.977   -717.74297    295873.66     15.28321 
  376000    1910.2357   -737.59697    290920.18    15.290463 
  376500    1864.8912   -719.60086    292898.67    15.284525 
  377000    1994.7338   -715.19535    304433.42    15.264928 
  377500    1956.5852   -718.37739    297201.55    15.284914 
  378000    1882.3321   -731.91786    297880.42    15.236885 
  378500    2043.9343    -728.8824    306906.94    15.225375 
  379000    2140.8079   -721.49989    310966.97    15.244451 
  379500    2142.5737   -731.07434    305158.28    15.231524 
  380000    1999.0132   -730.10058    317843.92    15.161911 
  380500    1775.2467   -740.00995    304682.92    15.204947 
  381000    2011.7622   -750.61147    287106.76    15.280316 
  381500    2014.1329   -733.63388    294121.09    15.278011 
  382000    2023.0275   -739.89408    284593.13    15.300934 
  382500    1935.9771   -719.12323    299174.46     15.25858 
  383000    1806.2512   -716.05111    298445.58    15.263115 
  383500    2081.7476    -711.2589    305585.84    15.250512 
  384000     2040.953   -713.83359    295972.93     15.28439 
  384500     1995.603   -713.05455    289766.81    15.297262 
  385000    2099.0151   -700.76872    316337.88    15.224905 
  385500    2116.9341   -706.43416    307744.09    15.256047 
  386000    1955.5778   -714.95438    298007.33    15.275099 
  386500    1968.6178   -713.53873     292847.5    15.271852 
  387000    2082.5905   -713.32727    304504.38    15.248341 
  387500    2120.7364   -704.11221    315156.11    15.192512 
  388000    1947.6711   -703.68883    305108.77    15.252464 
  388500     1961.131   -713.41525     296125.1    15.249428 
  389000    1938.0682   -711.95073    300736.04    15.224802 
  389500    1937.1531   -710.73484    299157.77    15.273583 
  390000    2174.9453   -705.90946     307304.6    15.273347 
  390500    2070.5751   -707.31511    303820.68    15.280479 
  391000    2038.4835   -716.21924    294286.09    15.286107 
  391500    1828.8745   -708.21946     315349.4    15.227561 
  392000    2203.1112    -714.3679    304864.32    15.247426 
  392500    2066.2114   -706.00103    303032.14    15.283457 
  393000    2025.7901   -720.24226    288390.25    15.319335 
  393500     2149.793   -704.85497    314268.93     15.27988 
  394000    1856.6136   -704.26052    307455.98    15.209061 
  394500    2155.6289   -704.96937    309975.33    15.240491 
  395000    1933.3019   -700.26089    326470.52    15.132571 
  395500    1986.1055   -705.83486    316718.31    15.184299 
  396000    1951.1028   -700.93338    321944.32    15.156519 
  396500    2047.2955   -710.21059    304747.32     15.25146 
  397000    1830.2202   -712.33359    300481.88    15.271765 
  397500    1953.5425   -717.67326    293286.99    15.262499 
  398000    1961.5541   -720.01865    282802.67    15.340778 
  398500    1983.9931    -717.5151    281325.13     15.35931 
  399000    2006.2953   -711.43178    304749.02    15.284205 
  399500    1969.8336   -700.00313     305704.3    15.278917 
  400000    2050.0916   -706.85813    309844.82    15.258349 
  400500    2021.5625   -699.96832    312938.65    15.248991 
  401000    1950.1629   -704.89867    301861.29    15.250342 
  401500    1932.9181   -699.79706    305666.76     15.29397 
  402000    2182.7399   -712.56397    290308.09     15.33015 
  402500    2087.0942    -719.1456    290997.55    15.338158 
  403000    1938.2815   -709.00606    293473.51    15.329842 
  403500    2089.4762   -710.09469    304478.01    15.281293 
  404000     1998.054   -704.96608     309183.4    15.273477 
  404500    1871.0514   -710.22074     304790.9    15.283191 
  405000    2042.6762   -709.96646    294925.45    15.297471 
  405500    2010.6542   -709.37765    308223.12     15.25079 
  406000     1808.493   -700.98467    319130.14    15.208302 
  406500    1972.5559   -706.34874    311443.15    15.229945 
  407000    1978.2428   -705.08867    310018.96    15.199423 
  407500     2120.712   -708.73638    318036.09    15.173153 
  408000    2027.4903   -713.05603    300507.02    15.229732 
  408500    1894.4742   -721.70367    289682.05    15.284262 
  409000    2088.3118   -715.52061       296259    15.274906 
  409500    2073.3121   -711.03856    300171.29    15.256012 
  410000    1778.4233   -719.50703    288022.23     15.27648 
  410500    2035.5971   -716.14026    292974.47     15.26787 
  411000    2083.3324    -710.7861    295892.32    15.273174 
  411500    2090.0294   -719.44884    291139.95    15.303061 
  412000    1993.2359   -716.01319    294285.43    15.308117 
  412500    1983.8181   -718.41986    296158.41    15.285797 
  413000    2106.7324   -713.21513    299765.88    15.285316 
  413500    2096.6717   -705.35721    308158.66     15.28457 
  414000    2032.6611    -707.3446    296903.41    15.287286 
  414500    2054.9171   -709.63309    309957.34    15.261636 
  415000    2130.4879   -705.06311    319986.86     15.23867 
  415500    2058.5876    -707.5552    304211.41    15.286394 
  416000    1885.0731   -720.04076     291579.5    15.289365 
  416500    2042.1576   -715.78125     286584.4    15.358904 
  417000    1873.6912    -713.0033    282285.55    15.360065 
  417500    1869.8784   -716.43538    291069.54      15.3051 
  418000    2053.9824   -709.54592    293090.34    15.294991 
  418500    1958.7461   -710.83014    303350.93    15.262535 
  419000    2092.7967    -710.0056    305933.27    15.249619 
  419500    2180.6817   -716.00417    296522.76    15.287727 
  420000    1949.0906   -724.60634    271827.81    15.351584 
  420500    1888.9181   -719.75213    285223.22    15.345059 
  421000    1968.2084   -718.74835    294568.36    15.298394 
  421500    2140.8128   -716.51239    290748.77    15.346434 
  422000    1902.6172   -718.36904       281337    15.296545 
  422500    2007.3908    -712.2519    297801.77    15.318533 
  423000    2029.6146   -724.82686    293395.68    15.291494 
  423500    2079.6035    -728.0548     296975.2    15.284984 
  424000    1900.8106   -723.90987    309217.54     15.22265 
  424500    2067.9461   -727.83565    317619.72    15.182463 
  425000    2103.5309   -719.22787    302581.91    15.250491 
  425500    1897.8491   -723.85873    292604.02    15.301428 
  426000       1960.1   -719.82991    289461.35    15.314815 
  426500    1874.7844   -730.09703    284427.07    15.325085 
  427000    1972.4326    -738.4583    285643.83    15.299398 
  427500    1923.1364   -743.32768    305847.71    15.195738 
  428000    1941.2915   -741.63292     317530.5    15.156404 
  428500    2069.9772   -737.00777    314044.27    15.180621 
  429000    2234.9105   -748.02562     310302.6    15.199171 
  429500    1934.2931   -739.16244    305468.29    15.222044 
  430000    1868.3614   -733.83853    301756.05    15.248564 
  430500    1905.2577   -738.49246    279226.35    15.327491 
  431000      1893.69   -724.81223    291865.24    15.299706 
  431500    1945.3724   -722.96106    304713.08    15.261922 
  432000    2038.7369   -725.88645    307730.59    15.213859 
  432500    1886.9116   -713.37763    309397.81    15.228334 
  433000    1850.6286    -722.5776    293278.66    15.275475 
  433500    1966.1399   -740.73969    290840.52    15.292506 
  434000     2076.076   -740.85276    280659.04     15.31679 
  434500    2005.0556   -743.39107     288833.3    15.274865 
  435000    2040.2293   -733.77399     299049.7    15.257287 
  435500    2128.9643   -739.27131    306717.89    15.234395 
  436000    2153.8553   -733.89009    317259.96    15.181549 
  436500    2028.6955   -728.40502    303821.19    15.245995 
  437000    1947.3936   -722.09849    299122.49    15.269665 
  437500     2083.044   -715.71378    311494.43    15.247702 
  438000     1953.806   -725.77873    334246.99    15.119888 
  438500    1947.5075   -739.08714    326511.08    15.113576 
  439000    2072.3918   -752.32475    295360.32    15.221708 
  439500    1909.3633   -745.85427    292617.61    15.244906 
  440000    2056.4384   -740.28737    286362.93    15.316756 
  440500    2060.1217   -750.47276    285049.48    15.285928 
  441000    1816.7006    -744.1668    301860.24    15.216222 
  441500    2076.4682   -740.61733    300346.96    15.240249 
  442000    2042.4472    -721.9767    308625.13    15.231349 
  442500    2009.8884   -740.12315    303603.24    15.222919 
  443000    2078.9283   -734.76364    304739.61    15.214084 
  443500    1959.9919   -719.68217    303617.24    15.268848 
  444000    2016.8732   -727.05169    292090.51    15.301043 
  444500    1885.2996    -730.1361       280817    15.328755 
  445000    2068.5803   -723.72969    282468.56    15.337462 
  445500    2055.9645   -729.70723    277938.14    15.355259 
  446000    2020.1525   -728.32774    300574.81    15.253652 
  446500    2147.6986   -739.19325    310900.72    15.203496 
  447000    1971.6491   -723.78463    311823.29    15.213534 
  447500     2143.807   -738.30153    298383.87    15.255701 
  448000    1931.2335   -739.19999       289759    15.268128 
  448500    1974.9473   -738.81788    296369.99    15.259642 
  449000    1936.2606   -743.37033    283363.79    15.281817 
  449500    2070.0995   -747.47362    284921.38    15.290786 
  450000    2142.8637   -748.13936    284044.17    15.292245 
  450500    2074.0306   -752.27675    305186.61    15.168227 
  451000    1954.8062   -736.64215    301103.51    15.226737 
  451500    1930.2953   -750.48134    299038.17    15.201209 
  452000    2124.3636   -739.62221    301305.76    15.238064 
  452500    2126.2166   -748.79288    300683.17    15.205713 
  453000     2042.896   -742.21197     298465.7    15.227085 
  453500    1990.6865   -736.37149    308684.05    15.217622 
  454000    1847.7958    -742.5914    310932.82    15.172275 
  454500    2132.7317   -751.43495    295355.77    15.230162 
  455000      2002.18   -742.20146    288794.73    15.276143 
  455500    2161.4259   -740.22441    301146.24    15.230012 
  456000    2134.7486   -737.64643    312179.57    15.179831 
  456500    1850.0532   -725.90494    312414.83    15.194227 
  457000    2246.7955   -743.85401    324252.45    15.133599 
  457500    1818.6915   -749.92785    298087.31    15.200852 
  458000    2072.0583   -752.17875    286468.97    15.247629 
  458500    2120.0205    -755.1345    289279.34     15.24016 
  459000    1955.2136   -735.56919    304778.08    15.245754 
  459500     2173.164    -734.9825    325089.29    15.147811 
  460000    2141.8867   -733.78989    318009.73     15.17569 
  460500    1887.8126   -731.39895    299735.21    15.235984 
  461000    2118.5843   -729.23457    294211.89    15.307894 
  461500    1978.4144   -729.33546    284713.61    15.321016 
  462000    1974.0972   -737.58974    287927.14     15.30911 
  462500    1956.4037   -714.01471    311302.74    15.228588 
  463000    1932.5402    -738.2272    306971.45    15.199493 
  463500    1986.9618   -726.12489    314453.35    15.197503 
  464000    2118.7317    -737.1761    296812.53    15.248995 
  464500    2016.2919   -731.06138    303473.39    15.250172 
  465000    2209.1706   -724.86913    302638.28    15.279933 
  465500    2009.2861   -728.12891    300616.43    15.244056 
  466000    1985.5111    -728.8659    303242.62    15.250513 
  466500    2002.7846   -712.70865    312413.19    15.208875 
  467000     2156.371   -729.26639    298371.29    15.279799 
  467500    2054.5308   -746.46386    286258.13    15.277912 
  468000    1966.4435   -738.06006     299320.6    15.254426 
  468500    1993.7945   -750.18892    301394.03     15.19909 
  469000    2077.3005   -748.98419    302339.58    15.193783 
  469500    1982.3432   -747.30258    308871.02    15.174128 
  470000    1966.5931   -763.26379    281003.25    15.247964 
  470500     1757.446   -747.58492    286877.41    15.247614 
  471000    1996.0603   -735.93985    301100.63    15.255377 
  471500    1877.9564   -729.32251     290394.8    15.280887 
  472000    2006.5141   -733.02294    297555.91    15.245049 
  472500    1969.9573   -724.40723    302008.72    15.246016 
  473000    1871.0632   -721.96235    308489.27    15.239741 
  473500    1945.6713   -723.23437    306686.79    15.243594 
  474000    2080.2711   -733.85184    294796.06    15.267268 
  474500    1968.7688   -732.97312    299440.54    15.243867 
  475000    1968.4124   -748.28365    295496.29    15.222945 
  475500    1986.6138   -731.60464    290382.09     15.29852 
  476000    1957.7849   -730.57828    300234.57    15.248284 
  476500    1957.2265   -732.98453    296022.08    15.255106 
  477000    1859.6114   -724.51217    282864.12    15.311271 
  477500    2015.7611   -734.82166    267759.48     15.39094 
  478000    1877.8315   -730.44582    284104.59    15.328898 
  478500     1838.867   -729.94131    292785.47    15.272626 
  479000    1875.5182   -737.85518    296458.33    15.238518 
  479500    2043.5811   -748.55225    296837.68    15.213182 
  480000     2014.061   -730.22651     301160.4    15.243107 
  480500    2027.0092    -728.7847    309924.92    15.225615 
  481000    1909.6229   -732.17435    299958.51    15.244159 
  481500    2021.4606   -751.72659    279301.38    15.283821 
  482000    1990.3186   -737.10711    284335.01    15.288733 
  482500    2107.1741   -739.41154    276012.55    15.325457 
  483000    1871.8087   -734.52535    297414.67    15.264225 
  483500    2141.1746   -723.32104    298500.07    15.283389 
  484000    1974.9301    -732.3537    297189.43    15.250683 
  484500    1895.1802   -724.76976    303459.66    15.253438 
  485000    2002.4812   -739.90582    302632.31    15.222128 
  485500    2112.5834   -740.42092    304926.75    15.221349 
  486000    2070.8524   -732.74481    309596.95    15.204639 
  486500    2068.3055   -721.98393    311419.68    15.203815 
  487000    2033.9242   -716.23467    310898.86    15.217265 
  487500     1889.485   -736.18666    299769.02    15.237878 
  488000    1914.6998   -739.59681    292405.36    15.252565 
  488500    2099.3023   -743.08235    284727.89    15.295824 
  489000    1971.7962   -737.06833    278505.25    15.354309 
  489500    1955.8842   -727.80483    280135.32    15.352517 
  490000    2097.6484   -729.47234    294321.16    15.279508 
  490500    2009.4334   -725.24368    309428.19    15.212704 
  491000     2015.244   -719.43357    304079.66    15.264001 
  491500    1893.4274   -729.54307     297257.9    15.273234 
  492000     2058.666   -744.50581    293239.02    15.272131 
  492500    1896.7046   -746.27959    290771.79    15.256886 
  493000    2010.0481   -728.92486    314454.06    15.214915 
  493500    2072.2629   -723.13083    315223.75    15.229996 
  494000    2162.2861   -730.42009    309813.46    15.227835 
  494500    1995.5429   -737.54657    284437.08    15.278491 
  495000    1851.2822   -737.22013    293843.19    15.269488 
  495500    1894.8738   -731.67396    296124.81     15.27554 
  496000    2037.8177   -734.05476    313609.95    15.197137 
  496500    1992.8245   -731.64492    313810.48     15.18829 
  497000    2137.1538   -745.91181    296107.26    15.237782 
  497500    1902.0796    -731.0714    293631.05    15.280048 
  498000    1790.9358   -734.78251    284019.27     15.29849 
  498500    2078.8445   -726.40745    293528.98    15.301737 
  499000    2050.0725   -736.18898    297403.77    15.272984 
  499500    2017.1046   -734.61857    309664.72    15.201074 
  500000    1921.9008   -733.62791    309244.76    15.213132 
  500500    2143.4255   -731.15539    301666.91    15.256999 
  501000     1903.885    -723.7621    292422.47    15.304378 
  501500    1892.0103   -734.42382    286703.73    15.312557 
  502000    2023.8332   -747.33084     278580.3    15.320702 
  502500    2076.4461   -743.35599    290432.76    15.280581 
  503000    2069.0729    -731.1782    292025.88     15.31258 
  503500    1917.9418   -736.26412    289735.98    15.282379 
  504000    1918.4877   -727.02848    296531.76    15.273054 
  504500    2048.2699   -729.94128    301227.58    15.267568 
  505000    1860.2063   -722.68223    297753.83     15.25342 
  505500    2059.3234   -719.30641    300956.37    15.258058 
  506000    2157.9064   -718.40805    313842.72    15.238122 
  506500    2014.6017   -706.76621    302296.23    15.261511 
  507000    2106.1768     -723.658    291506.42    15.287218 
  507500    1986.2215   -719.19011    289971.69    15.275215 
  508000    2023.8815   -717.93509    290353.13    15.287338 
  508500    1787.0055   -710.04418    288379.82    15.249582 
  509000    1810.4474   -706.28478    307755.25    15.209974 
  509500    2125.7195   -708.03414     306747.8    15.214414 
  510000    2029.7559     -710.226    300759.95    15.267345 
  510500    2111.0781   -718.67565    286142.91    15.269942 
  511000    2005.9611   -717.23348    297241.01    15.245823 
  511500    1990.7658   -712.31713    302984.09    15.211896 
  512000    2024.7508   -711.22378    308677.16    15.248575 
  512500    1995.9101    -706.9793    322020.58     15.19513 
  513000    2029.9278   -710.27311    313152.59    15.208245 
  513500    1949.2801   -721.04619    291909.96    15.292283 
  514000    1995.9329   -714.25315    297149.62    15.267455 
  514500    2058.2221   -717.87742    308682.82    15.230934 
  515000     1929.656   -726.01594    306847.47    15.221249 
  515500    2167.9691   -715.47772    311199.58    15.231858 
  516000    1945.2326   -713.00381    301955.44    15.248319 
  516500    2036.6767   -730.78498    315422.16     15.18139 
  517000    2062.9227   -729.61786    319859.11    15.162539 
  517500    2018.5116   -715.90393    313957.13    15.218431 
  518000    2060.0463   -719.03963    307183.87    15.243841 
  518500    2082.1032   -723.16554    304042.68    15.261141 
  519000    2065.0716   -724.61302    303162.74    15.256637 
  519500    2019.3918   -727.41182    300624.36    15.242855 
  520000    2106.5496   -746.08624    291815.81    15.284805 
  520500    2035.7321    -730.4806    288480.77    15.302401 
  521000     2174.008   -740.43471    299929.06    15.235053 
  521500     2071.981   -731.03097    314344.52     15.20036 
  522000    1965.1051    -734.0775    331975.45    15.111935 
  522500    1859.6495   -747.36725    309917.82    15.164003 
  523000    2015.9249   -759.54266    276223.84     15.27839 
  523500     2000.808   -753.72265    295153.65    15.211632 
  524000    1875.6979   -746.30329    301516.95    15.202369 
  524500    2061.1057   -745.61409    310822.45     15.15996 
  525000    1956.4854   -754.26805    299733.66    15.186283 
  525500    1772.2186   -749.37091    278520.81    15.289806 
  526000    2021.2371   -748.15197    293784.07    15.240298 
  526500    1964.3451   -730.02667    306248.73    15.221561 
  527000    1867.8549   -706.72053    312399.85    15.226795 
  527500    2021.3478   -719.18329    301503.92    15.256431 
  528000    2101.6396   -734.09664    283084.69    15.309077 
  528500    1838.2262   -735.42575    284232.16     15.31795 
  529000    2105.4428   -740.60787    304112.45    15.230497 
  529500    1850.8947   -723.20178    304264.08    15.244487 
  530000    2118.3958   -725.64269    300116.43    15.280907 
  530500    1859.7545   -736.34493    297608.27    15.236937 
  531000    2046.3148   -723.50905    322334.49    15.177543 
  531500    1945.9531   -717.86642     310629.8    15.234859 
  532000    2095.8698   -734.89103     296298.9    15.262446 
  532500    2226.2325   -759.77184    279702.65    15.270319 
  533000    1749.7119   -734.65504    287558.61    15.279817 
  533500    2042.5725   -722.48878    295327.84    15.297862 
  534000    1908.7454    -746.6438    296082.54    15.227801 
  534500     2171.081   -743.45938     299495.5    15.231037 
  535000    2114.0181   -720.40398    319451.18    15.220991 
  535500    2016.9902   -708.56294    313193.27    15.212205 
  536000    2270.1917   -712.44148    306413.11    15.251376 
  536500    1902.0556   -714.46477    294048.83    15.293814 
  537000    1838.0025   -715.38161    285039.34    15.292285 
  537500    2030.5524   -717.10476    296613.81    15.287271 
  538000    2037.3054   -711.68826    291470.26    15.303533 
  538500     1980.085   -716.25905    283339.21    15.327808 
  539000    1953.7972   -724.53058    287348.22    15.302215 
  539500    2166.2082   -723.84713    287434.42    15.302699 
  540000    1974.9493   -728.15718    295200.35    15.270697 
  540500    1951.1395   -719.44035    295155.77    15.270484 
  541000    2059.9523   -720.85054    309022.57    15.246143 
  541500    1923.2548   -722.47113    314825.44     15.19564 
  542000     1867.709   -726.94823    297033.26     15.26334 
  542500    2042.3794    -741.2771    286651.37    15.296739 
  543000    1984.3704   -729.87851    301960.93    15.253203 
  543500    2005.9851   -718.99961    305489.28    15.258364 
  544000    2113.7748   -719.23413    303640.59    15.250887 
  544500    1811.5048   -718.10948    299496.11    15.242466 
  545000    2180.6752   -719.46737    304480.68    15.238408 
  545500    1931.3637    -711.8818    300430.31    15.269383 
  546000    2045.0531   -716.84065    305355.71    15.257853 
  546500    1992.7006   -723.29435    332370.32    15.151666 
  547000    2106.5387   -712.46595    323269.53    15.167581 
  547500    1929.1649   -713.36101    308306.26    15.216673 
  548000    2052.4916   -710.93765    308859.83    15.253978 
  548500    1908.4826   -723.99837    309641.12    15.224803 
  549000    1871.1111   -719.12315    296619.32    15.271438 
  549500    1941.1188   -737.90522    293967.64    15.269321 
  550000    2126.0405   -735.82572    294933.47    15.279451 
  550500    2229.2905   -729.19487    289764.99    15.318643 
  551000    2014.0575   -723.77061     298874.6    15.266502 
  551500    1935.9558   -734.41985    287284.76    15.300512 
  552000    1988.9667   -725.69229    288329.12    15.314152 
  552500      1999.97   -715.37536    298504.47    15.281385 
  553000    2213.8108   -747.83271     313386.6    15.142794 
  553500    1827.2448   -731.64152    311486.92    15.210756 
  554000    1960.7165   -738.05217    298567.38    15.238858 
  554500    2047.7816   -732.97781    302480.73    15.247558 
  555000     2149.656   -728.32436    303553.91    15.227222 
  555500    1802.8345   -728.38671    302565.77    15.227204 
  556000    1802.6403   -723.38015     291711.2    15.299828 
  556500    2063.4298   -734.93571    288014.84    15.285126 
  557000    2042.0811   -732.88612    289494.75     15.29539 
  557500    1837.4568   -718.40201    307875.38    15.253277 
  558000    2154.8366   -742.96821    298252.28    15.245472 
  558500    1796.7822   -741.33931    297930.39    15.238987 
  559000    1927.6518   -730.60462    321626.01     15.17405 
  559500     1877.396   -722.79241    312393.97    15.220795 
  560000    2047.1191   -726.12291    295465.64    15.286443 
  560500    2182.9166   -727.37995    302068.13    15.282467 
  561000    2000.9783   -737.78986    303621.04     15.23818 
  561500    1881.2962   -731.47904     310808.6    15.214128 
  562000    2170.0353   -739.65255    300448.39      15.2441 
  562500    2093.7352    -742.9229    283046.33    15.302692 
  563000    1874.0275   -732.53968    285493.73    15.320329 
  563500    2053.6341   -736.27617    291180.73    15.285831 
  564000    2060.4769   -740.08805    290359.22    15.290311 
  564500    1982.2055   -744.44506     296296.5     15.23155 
  565000    2056.7839   -731.89389     308423.2    15.236904 
  565500    1995.8266   -716.90677    314542.37    15.202243 
  566000    1918.8631   -714.85858    322027.06    15.182641 
  566500    1962.6189   -724.20082    309082.69     15.22528 
  567000     1941.794   -726.09274    299499.85    15.262879 
  567500    2002.4455   -734.15756       295624    15.257198 
  568000    1884.5178   -721.98208    306253.94    15.241923 
  568500    1953.9005   -710.64567    287483.14    15.310635 
  569000    2071.9042    -722.7078    284869.48    15.307685 
  569500    1793.7731   -713.97785    295674.39    15.259348 
  570000    2208.3693   -711.77428    306994.61    15.267118 
  570500    1969.0682   -705.41773     320723.4    15.161883 
  571000    1965.9518   -704.17708     318628.3    15.191125 
  571500    1937.9517   -704.07538       318926    15.163618 
  572000    2107.6324   -714.61352    305384.96    15.253911 
  572500    1900.3889   -712.85068     300472.7    15.261759 
  573000    1918.4241   -713.20235    293535.56    15.282113 
  573500    1875.7074   -708.44776    294207.15     15.29695 
  574000    1828.4778   -715.81986    291612.56    15.265943 
  574500    2077.4565   -710.49263    302665.59    15.261626 
  575000    2070.1807   -703.03879    309910.86    15.253554 
  575500    2068.3057   -704.79201    311977.65    15.228502 
  576000    1805.5833   -695.63328     341340.4    15.148802 
  576500    2012.4513    -695.3671    324561.11    15.219179 
  577000     1960.689   -712.98351    296353.89    15.294719 
  577500    1918.3166   -712.71708    292979.82    15.281877 
  578000    1999.3127    -709.5804    300821.71    15.311929 
  578500    1965.1127   -713.56698    305762.74      15.2657 
  579000    2036.1563   -702.68305     312852.5    15.263646 
  579500    1794.3267   -704.13241    308075.64    15.249699 
  580000      2062.12   -709.02829    303572.06    15.276683 
  580500     2110.381   -708.29775    302819.02    15.241073 
  581000    1925.6702   -712.46476    290560.08    15.262451 
  581500    1985.3683   -713.95695     284986.3    15.316551 
  582000    1985.7677   -711.85024    282854.82    15.369865 
  582500     1952.737   -709.27556    302049.29    15.288519 
  583000    2073.2746   -709.64197     299440.5    15.283167 
  583500    2098.0157   -708.69624    305616.04    15.270329 
  584000    1959.6392   -708.25697    292058.94    15.340783 
  584500    1786.1033   -714.96664    278839.25    15.370571 
  585000    2057.1813    -716.8979    281350.16    15.374851 
  585500    1904.0994   -713.92465    284270.87    15.330292 
  586000     2161.539   -715.76352    309547.34     15.24905 
  586500     2009.045     -697.472    318928.49    15.188719 
  587000    2092.9443   -706.78858    313873.48    15.203754 
  587500    2235.0603   -708.50532     302440.9    15.249809 
  588000    2147.7334   -706.59199    313843.76    15.222322 
  588500    2083.8706   -703.68903       315546    15.218136 
  589000    1907.1341   -710.15007     291668.9    15.290021 
  589500    1781.0649   -710.09016    294733.49    15.300605 
  590000    1949.2037   -705.03264    305731.76    15.263585 
  590500    2149.7296   -715.15197    292559.96    15.282618 
  591000     2035.532   -710.55909    303122.27    15.246394 
  591500    2151.8431   -706.96157    300889.85    15.232836 
  592000    2036.2923   -706.61052    294468.03    15.319009 
  592500    2086.4988   -717.96756     289450.2    15.309408 
  593000    1975.8304   -720.94229    284485.64    15.321396 
  593500    2009.4166   -718.81031    267269.46    15.384906 
  594000    1970.4667    -706.5762    294916.18    15.332222 
  594500    1900.9343    -716.2069    289559.42    15.331232 
  595000    1948.5915   -712.26469    291334.49    15.304882 
  595500     1928.022   -705.61482     309712.3    15.255403 
  596000    2043.6536   -708.13538    298551.38    15.301133 
  596500    1933.8003   -705.82407    296241.31    15.318278 
  597000    1898.6815   -704.76658    289273.25    15.347147 
  597500    1786.1753   -714.98676    292183.96    15.310037 
  598000    2035.4479   -710.89248    300218.07    15.289592 
  598500    1903.5707   -701.22091    311375.56    15.273759 
  599000    1967.1903   -703.76405    308410.53    15.267501 
  599500    2035.5571   -710.10118    310483.74    15.269314 
  600000    1913.7273   -699.34406    307694.46    15.275152 
  600500    1897.8414   -702.98352    311662.04     15.22281 
  601000    1924.3216   -709.85319    303277.58      15.2441 
  601500    2024.1241   -710.11577    294280.86    15.301378 
  602000    1926.2701   -704.13317    307899.51    15.267696 
  602500    2120.3692   -707.01826    302325.15    15.275565 
  603000    2033.4511    -713.6056    294105.89    15.282835 
  603500    2006.5146   -711.02318    309904.03    15.199797 
  604000    2186.1824   -707.72722    310127.89    15.231994 
  604500    2040.9949   -703.28861    309096.89    15.221004 
  605000    1978.0061    -702.6449    313016.11    15.266043 
  605500    2100.9846   -702.33462    310749.46    15.292009 
  606000    2049.8292   -710.58422    296015.54     15.31541 
  606500    2044.3193   -712.99809    276632.88    15.374446 
  607000    2039.5564    -704.5665     301618.9    15.283173 
  607500    2090.8456   -706.54587    302738.51    15.269797 
  608000    2153.1924   -713.26314    300396.12    15.276134 
  608500    1881.4422   -712.12362    284469.26    15.319466 
  609000    1765.7733   -712.94158    302410.81    15.245492 
  609500    2017.6255   -712.67309    298288.08     15.30664 
  610000    2065.9928   -700.61279    311215.57    15.287138 
  610500    1996.6838   -707.79959    304323.12     15.26717 
  611000    1991.7846   -718.09975    294420.69    15.267984 
  611500    2108.5304   -713.15342    306999.32    15.237327 
  612000    2018.9686   -714.86267    298027.01    15.250956 
  612500    1937.0225   -710.66737    311102.44    15.242128 
  613000    1947.5046   -712.39604     316226.8    15.190568 
  613500    1868.8235   -711.72026     313170.4    15.211841 
  614000    1883.1875   -722.86021    303296.06    15.238444 
  614500    1723.3392   -716.35089    291195.29    15.297993 
  615000    1985.8239   -717.78015    309260.98    15.226168 
  615500    2082.0967   -715.57902    311049.24    15.226005 
  616000      1895.26   -734.24594    301678.91    15.250483 
  616500      1838.53   -750.89188    297898.54    15.208053 
  617000    1991.5208   -750.66347    301269.03    15.196955 
  617500     1862.839   -749.72213    305952.65    15.169352 
  618000    2026.6358   -749.00985    310915.22    15.160254 
  618500    2100.5603   -760.10209    286851.29    15.239001 
  619000    1840.5293   -742.90653    291243.05    15.263514 
[...]
 4848500    1972.5784   -741.49774    282989.04    15.316707 
 4849000    1888.0543   -719.26601    286859.71    15.305782 
 4849500    1788.2294   -726.82922       289610    15.314197 
 4850000    1968.6795    -725.1197     294196.7    15.276099 
 4850500     1866.962   -723.07105    300064.34    15.274402 
 4851000    2038.0447   -731.17807    293428.58    15.275904 
 4851500    1853.3663   -723.50056    308498.27    15.224454 
 4852000    1918.7769   -742.59861    297708.17    15.247122 
 4852500    1920.0638   -750.89906    283654.27    15.274298 
 4853000    1854.2612   -739.25739    290452.72    15.277927 
 4853500    2187.1855   -750.02181    306150.26    15.190928 
 4854000    2054.6407   -728.31965    319550.62    15.192023 
 4854500    2121.1685   -736.10007    318360.26    15.170809 
 4855000    1805.2049   -730.16111    293018.79    15.260503 
 4855500    2140.9744   -724.29708    300628.99    15.284503 
 4856000    2034.5083   -724.63803     290590.8    15.317723 
 4856500    1940.4122   -729.84447    286129.36    15.334213 
 4857000    2127.9835   -732.20846    275897.59     15.35637 
 4857500    1991.4949   -734.28782    283406.15    15.341619 
 4858000    2044.3388    -724.0015    302546.92    15.268638 
 4858500    2041.0746   -723.68927     301741.6    15.257011 
 4859000    1915.9934   -734.13572     309263.7    15.205242 
 4859500     1974.957   -734.12526    290394.45    15.272862 
 4860000     1975.838   -727.69964    282998.23    15.344093 
 4860500    1873.9259   -740.79518       280322    15.319314 
 4861000    2142.3779   -740.32337    305136.67    15.228441 
 4861500    2069.6314   -728.15386    313508.95    15.206217 
 4862000    2089.0591   -727.58958    310948.58    15.240316 
 4862500     2039.742   -722.36035     302510.3    15.255174 
 4863000    2011.0364   -721.26086    301355.53    15.248958 
 4863500     1843.836   -732.38724    284139.31    15.308567 
 4864000    1952.8027   -724.17072    296345.91    15.284603 
 4864500    2178.2154   -712.00447    302288.59    15.287141 
 4865000    1780.4407   -705.46984    304500.83    15.236114 
 4865500    1958.3751   -709.78751    302215.84    15.239121 
 4866000    2046.1135   -710.80208    303691.35    15.270322 
 4866500    1919.0317   -704.76772    306479.45    15.216335 
 4867000    2033.5636   -706.43867    296674.95    15.169581 
 4867500    2076.8078   -709.68978    313123.79    15.192064 
 4868000    2017.4042   -717.00485    298845.91    15.245546 
 4868500    1946.6316   -710.06131    297439.72    15.282237 
 4869000    1979.0711   -721.32099    290656.56    15.267287 
 4869500    2132.2541   -712.66439    295128.88    15.273802 
 4870000    2046.8738   -709.01943    308533.21     15.26032 
 4870500    2046.6927   -712.90001    297285.34     15.26811 
 4871000    1948.0662   -711.23525    302833.99    15.257074 
 4871500    1940.3875   -709.87058    305003.21    15.212427 
 4872000    1910.6059   -706.13294    311368.53    15.242337 
 4872500    1867.2248   -715.44183    298018.53    15.251997 
 4873000    2129.4469   -721.06804     294490.3    15.255307 
 4873500    1996.6493   -720.12722     294291.6     15.28843 
 4874000    2051.8976   -716.62113    288179.42    15.289019 
 4874500    1830.7872   -715.85813    296596.64    15.259437 
 4875000     2219.249   -712.73243    295634.99    15.312352 
 4875500    1985.7997   -707.10578    302538.82    15.281824 
 4876000    2070.4289   -713.07458    295342.37    15.284448 
 4876500    2000.1307   -709.68862    306321.03    15.242019 
 4877000    2166.2579   -715.69775    294139.82    15.254439 
 4877500    2203.9785   -717.29293    294983.55    15.263372 
 4878000    1914.1059    -714.7048    306138.56     15.21006 
 4878500    1911.7894   -714.99391    299231.98     15.24384 
 4879000    2064.1249   -714.22469    299710.01    15.254805 
 4879500    2060.3117   -707.80578     299977.5    15.279246 
 4880000      2039.53   -710.36449     303810.4     15.25334 
 4880500    1890.1056   -715.03058    301152.39    15.218216 
 4881000    2007.1405   -719.33302    279018.52    15.297297 
 4881500    1854.6121   -715.30665    279690.11    15.326556 
 4882000    2193.1805   -713.96447    299700.75    15.292583 
 4882500    2120.3058   -714.72155    285291.34    15.278622 
 4883000    2221.5654   -715.23913    297290.56    15.288431 
 4883500    1847.5397   -716.38955    294765.68     15.25748 
 4884000    1962.3048   -716.43305    305096.72    15.222289 
 4884500    1832.2817   -708.06952     294691.2    15.276724 
 4885000    1834.5249   -706.50911    302225.64    15.263765 
 4885500    1900.7294   -714.42951    296227.33    15.261498 
 4886000    2000.9226   -722.72678    292257.63    15.297248 
 4886500    1885.9674   -718.10112    289445.76    15.297238 
 4887000     2014.463   -720.86076    278236.07    15.350474 
 4887500    1994.2841   -724.55405    288311.29    15.324688 
 4888000    1862.2761   -717.05212    301063.15    15.243403 
 4888500    2045.1672    -723.2393    300358.57    15.254845 
 4889000     2192.144   -724.17678    309885.73    15.240318 
 4889500     2023.716   -746.22873     298359.5    15.218389 
 4890000    2071.5183   -746.55986    290468.22     15.27469 
 4890500    1942.1032   -735.28781    304868.91    15.201818 
 4891000    2113.5073   -718.84833    321312.38    15.179544 
 4891500    2144.9176   -717.21636    302155.05    15.249851 
 4892000     2104.042   -720.87861     290522.7    15.317742 
 4892500    1981.7935   -730.58131    269402.84     15.37054 
 4893000    1940.8016   -715.16958    291498.89      15.3004 
 4893500    2005.6433   -712.64033    295352.99    15.269882 
 4894000    1799.8723   -712.34461    295322.65    15.266696 
 4894500    2065.2672   -710.59035     308266.8    15.246273 
 4895000    1867.6198   -708.78994    315954.23    15.208642 
 4895500    2108.8132   -710.10015    314738.73    15.210788 
 4896000    2098.6674   -702.62854    307837.56    15.248155 
 4896500     2008.251   -713.70481    311719.08    15.222674 
 4897000    1834.6222   -718.32386    295716.29    15.279177 
 4897500    1966.4898    -712.2878    301307.93    15.277263 
 4898000    2204.5362   -715.94988    283963.65    15.314379 
 4898500    1894.8165   -719.34459    293600.03    15.314414 
 4899000    2014.0002   -710.87754    299563.59    15.276695 
 4899500     2210.046   -710.83103    304874.72    15.241681 
 4900000    1942.3488   -703.68056    305798.33    15.246985 
 4900500    1946.9918   -710.14476    304897.92    15.243364 
 4901000    2074.8661   -708.87199    304250.72    15.242997 
 4901500    1712.3167   -715.97958    301670.55    15.242643 
 4902000    1938.2406   -711.60047    304402.47    15.264865 
 4902500    2033.6714    -710.6108    313624.89    15.235501 
 4903000    2060.6675   -710.67118    317656.73    15.200141 
 4903500    1892.1505   -715.00208    313226.54    15.236726 
 4904000    2134.9632   -719.26574    309209.85    15.235703 
 4904500    1938.8854   -717.80445    306150.86     15.21573 
 4905000    1851.7488   -740.14792    296700.36    15.262368 
 4905500     1919.196   -737.51863     280636.1    15.322059 
 4906000    2249.0446   -736.84651    290191.13    15.302522 
 4906500     1990.581   -735.20508    297095.86    15.259257 
 4907000    2223.1166   -731.49996    315990.01    15.192886 
 4907500    1915.6711   -709.77153    339345.02     15.09872 
 4908000    1941.7426   -727.31201    317131.06    15.189911 
 4908500    2101.3816   -745.68372    293284.24    15.259132 
 4909000    2038.2735   -745.29056    285745.83    15.293917 
 4909500    1921.9629   -754.65699     290277.2    15.216127 
 4910000    1943.5339   -725.03394    303780.35    15.245881 
 4910500    2038.3995   -733.30554    306606.27    15.220789 
 4911000    1909.1035   -735.26731    301449.01    15.248851 
 4911500    1904.9602   -724.76045    293602.38    15.285999 
 4912000    2223.9702   -743.47479    292655.98    15.265492 
 4912500    1761.2751   -719.92711     307098.5    15.246342 
 4913000    2070.4474   -730.31244    295304.69    15.296178 
 4913500    2003.7504   -744.60661    298502.87    15.231591 
 4914000     1793.586   -736.24731    309630.64    15.210138 
 4914500    1968.4059   -746.42418     311585.1    15.158348 
 4915000     1975.933   -739.11792    299788.82    15.244429 
 4915500    2021.8221   -730.74762    295155.17    15.277307 
 4916000    2058.2955   -741.78206    296904.96     15.24525 
 4916500    1979.0299   -746.16741     297654.7    15.224488 
 4917000    1974.6677   -746.68437    293558.34     15.23933 
 4917500    1963.8896   -753.94232    277925.22    15.290171 
 4918000    1889.5028   -744.08096    300147.99    15.217999 
 4918500    1817.3249   -751.06431     299914.9    15.189787 
 4919000    2063.8737   -757.90936    295880.41    15.194747 
 4919500    1930.2104   -751.87976    291040.47    15.238755 
 4920000    1850.9885   -732.02931    296672.38    15.245367 
 4920500    2053.7988    -743.1216    311149.31     15.18347 
 4921000    1862.3636   -744.18258    307124.24    15.183033 
 4921500    2006.0445   -754.00028    303044.23    15.185867 
 4922000    1918.6671   -762.32763    293279.18    15.199956 
 4922500    1846.5905   -753.13304    296619.05     15.21687 
 4923000    2013.1316   -755.75897    279477.27    15.266241 
 4923500    2042.7726   -743.58893    308330.17    15.202332 
 4924000    1989.8319   -750.31071    309575.21     15.16275 
 4924500    1937.6624   -738.39697    313594.38    15.189264 
 4925000    2065.9054    -743.2492    301182.14    15.214812 
 4925500    1995.0162   -743.30029    300489.37    15.231616 
 4926000    2082.6139   -720.59638    290414.36    15.304349 
 4926500    2188.2181   -736.62684    287867.65    15.308456 
 4927000    2004.1068   -721.61947    290029.57     15.29968 
 4927500    1934.6019   -716.20952    293551.52    15.287192 
 4928000    1978.7001   -714.82033    288951.37     15.32337 
 4928500    2144.6845   -716.78815    303781.35       15.264 
 4929000    2059.9307   -714.88011    304226.04    15.230694 
 4929500    2092.4908   -721.52969    294291.58      15.2759 
 4930000    1874.3914   -703.25131    316624.94    15.211059 
 4930500    2075.7248   -719.43082    306895.93     15.24724 
 4931000    1980.5599   -713.33927    303813.19    15.260181 
 4931500    1925.4527   -714.46949    302662.22    15.269914 
 4932000    2074.0188    -719.6815     290870.6     15.31305 
 4932500    2152.6231   -724.86057    288108.57    15.311958 
 4933000    1927.1626   -722.27565    279767.48    15.344736 
 4933500    2045.0259   -724.07463    274712.49    15.390938 
 4934000    1936.5125   -714.94156    288684.43    15.321683 
 4934500    1983.7818   -714.16868    293187.36    15.309931 
 4935000    2103.6288   -720.69353    287267.33    15.308949 
 4935500    1967.8504   -718.68168    291217.18    15.287945 
 4936000    2064.0658   -707.00273    321546.33     15.17381 
 4936500     2224.756   -712.19894    312581.58    15.189157 
 4937000    2030.7343   -709.76055    295900.21     15.24231 
 4937500    1919.1054   -718.24172    292150.12    15.270714 
 4938000    1943.4959   -715.39989    298413.06    15.260239 
 4938500    2069.1251   -713.81415    285678.04    15.290985 
 4939000    1962.6541   -721.94357    286394.97    15.311002 
 4939500    2075.8909   -717.59305    293337.06    15.278061 
 4940000    1979.8307   -717.59895    284064.36    15.334959 
 4940500    2019.8579    -718.5613    283222.14    15.334771 
 4941000    2023.1782   -716.88422    294791.89     15.29818 
 4941500    1967.9067    -714.3732    302929.61    15.281275 
 4942000    2013.6438   -713.42815    299308.72    15.296505 
 4942500    1964.2338   -713.20408    296943.36    15.276884 
 4943000     2064.136   -709.04112    305573.45     15.27212 
 4943500    2040.5034   -712.19246    305162.34    15.233674 
 4944000    2155.0993   -704.39942    312690.05    15.222016 
 4944500    2053.2208   -704.70255    309801.97     15.24321 
 4945000    1936.2104     -703.739    321182.88    15.166153 
 4945500     1927.325   -707.49744    317663.63    15.222203 
 4946000    2128.5131   -704.97014    307267.93    15.289587 
 4946500    1966.2374   -701.81245    301428.77    15.288339 
 4947000    2013.0248   -707.42813    295321.97    15.326914 
 4947500     1933.648   -711.33879    287842.74    15.343068 
 4948000    2194.7799    -710.1703    289550.36    15.340107 
 4948500    2013.3057   -707.52814     296450.8    15.333394 
 4949000    1944.3286   -715.02477    294858.29      15.3159 
 4949500     2255.576   -710.56034    301327.39    15.293107 
 4950000    2055.8741   -710.53734    288115.57    15.336587 
 4950500    2080.5466   -718.30063    286043.76    15.343499 
 4951000    2032.0719   -711.90456    284478.47    15.353232 
 4951500    2024.6756   -710.88437    296899.17    15.299413 
 4952000    2087.5304   -706.49965    307058.56    15.248289 
 4952500    2049.8294   -702.88223    308082.06      15.2376 
 4953000    2106.9806   -695.99284    333321.69    15.167679 
 4953500    1916.2354   -704.12961    302342.15    15.296296 
 4954000     1969.449   -707.12417    297924.07    15.330829 
 4954500    1938.1567   -709.63417    295988.44    15.306428 
 4955000    2074.3217   -714.55384    298754.18    15.301046 
 4955500    1970.9264   -722.64936    278026.28    15.352424 
 4956000    2141.0946   -714.40063    285272.14    15.351233 
 4956500    2008.9481   -714.88877    289121.43    15.366194 
 4957000     1976.291   -711.85331    287716.06    15.358661 
 4957500    2056.6341   -704.80285    300387.79     15.31585 
 4958000    2071.2289   -688.54482    312484.75    15.292076 
 4958500    2139.6732   -701.57587    315305.36    15.213995 
 4959000    1980.9919   -698.48641    318216.55    15.250101 
 4959500    1908.0313   -706.68685    306039.93    15.265094 
 4960000    2019.5504   -713.60632    304288.04     15.27068 
 4960500    1883.5855   -705.58605    303967.98    15.266251 
 4961000     2057.329   -709.26259    295517.63    15.314601 
 4961500    1958.7737   -720.50006    283692.05    15.349164 
 4962000    1967.9051   -713.08255    282202.11    15.390421 
 4962500    2131.0843   -712.86835    290904.22    15.325233 
 4963000    2010.5603   -707.15434     301327.9    15.265847 
 4963500    2001.4271   -705.40824    303134.19     15.30875 
 4964000    2080.6503   -703.97958    297253.35    15.299529 
 4964500    2076.5321   -703.55689    312726.19     15.25078 
 4965000    1943.4611   -695.07054    317718.92     15.23829 
 4965500    2057.3431   -708.01531    304435.46    15.292936 
 4966000    2059.3194   -701.66733     303120.5    15.296722 
 4966500    2003.6282   -715.31441    296514.98     15.30103 
 4967000    2155.7567     -711.841    284122.47    15.352284 
 4967500    2056.1666   -711.31912    300814.04    15.312383 
 4968000    2147.0467    -705.1348    313212.63    15.275864 
 4968500    1802.9289   -698.70864    322152.58    15.246677 
 4969000    2007.1542   -703.39326    308420.44    15.266763 
 4969500    2029.4469   -710.32584    297522.57    15.318697 
 4970000    1740.1225   -715.79264       289366    15.315168 
 4970500     2105.284   -712.85601    297422.64    15.276939 
 4971000    2020.7859   -710.75112    300954.43    15.267461 
 4971500    2143.6355   -710.94705    290502.31     15.33246 
 4972000    1945.0497   -714.95154    282310.83    15.348158 
 4972500    2190.1211   -714.45082    287732.75    15.327795 
 4973000    1958.9691   -717.90888    290175.59    15.322531 
 4973500    2023.3643   -715.54616    290260.38    15.319524 
 4974000    2091.1857   -716.56895    292378.75     15.32872 
 4974500     2112.579   -716.01164    288573.15    15.282472 
 4975000    1957.9638   -717.88986    299708.48    15.272945 
 4975500    1862.7311   -710.46576     306933.5    15.230334 
 4976000    2211.3674    -712.6463    307416.64    15.233814 
 4976500     1884.598   -706.93736    311015.09    15.243086 
 4977000    2136.4989   -710.06631    298303.96    15.296635 
 4977500    1948.1762   -713.88909    285079.49    15.332714 
 4978000    1953.8412   -714.87893    294021.99    15.299168 
 4978500    1926.4565   -723.05104    275788.26    15.336254 
 4979000    1952.8069   -716.05004    284654.18    15.345086 
 4979500    1843.8725   -706.52131    296788.27    15.287119 
 4980000    1972.9578   -706.36168    307090.51    15.280854 
 4980500    2131.6477   -709.02182    297702.59    15.313026 
 4981000    2058.3025   -707.26105    304742.69    15.277705 
 4981500    1899.5719   -707.87037    315462.48    15.213292 
 4982000    1978.1421   -705.82104    307964.04    15.262911 
 4982500    2100.0337   -707.05192    318230.24    15.212432 
 4983000    1991.6158   -711.33197     303753.8    15.254506 
 4983500    1952.3055   -710.52089    302366.05    15.263439 
 4984000    1924.6418   -713.43113    288226.87    15.313666 
 4984500    2020.5495   -716.94372     276639.8    15.312769 
 4985000    2091.7655   -712.88703    292090.86    15.303243 
 4985500    1766.2583   -713.33096    288778.62    15.323771 
 4986000    1995.3218   -715.32237    284766.45    15.350994 
 4986500    1995.6541   -712.58122    301086.01    15.292589 
 4987000    2078.7227   -708.63247    290119.58    15.358783 
 4987500    1989.1149   -707.98395    301710.66    15.292877 
 4988000    1944.1543   -705.46402    298013.32    15.308499 
 4988500    2166.3527    -716.6767     297204.5    15.305207 
 4989000    1915.7446   -703.58159    299355.45     15.29436 
 4989500    2002.6457   -715.23127    297067.42     15.29913 
 4990000    1910.9172   -709.50858    296354.66    15.332787 
 4990500    2032.4644   -711.34601    289924.81    15.352009 
 4991000    1954.0974   -706.54961    294635.32    15.297257 
 4991500    1900.9727   -709.74495    297375.93    15.301255 
 4992000      2050.83   -715.07296    295632.29    15.293664 
 4992500    1968.2364    -719.7117    280177.03    15.324124 
 4993000    2058.7421   -713.04386    293964.17    15.287167 
 4993500    1955.1445   -707.13784    291636.49    15.320616 
 4994000    1926.6212   -718.83533    285242.63    15.332626 
 4994500    2143.2707   -715.79596    293703.34    15.301772 
 4995000    1994.5429   -715.30049     292248.8    15.301335 
 4995500    2029.7038   -708.38635     304818.7    15.262793 
 4996000    1963.4126    -712.7771    298873.29    15.287136 
 4996500    2112.9349   -710.93626     307225.6    15.268688 
 4997000    1904.7967   -731.19222    289636.04    15.309057 
 4997500    2014.7724   -715.10952    305195.55    15.249845 
 4998000    2028.9899   -713.71463    307240.95    15.238863 
 4998500    1992.5274   -723.44743    304655.33    15.250817 
 4999000    2074.9066   -716.83686    322206.69       15.205 
 4999500    2037.4039    -718.3897    304957.48    15.251871 
 5000000    2116.2694    -723.2414    302952.97     15.23875 
Loop time of 17321.9 on 6 procs for 5000000 steps with 256 atoms

Performance: 49.879 ns/day, 0.481 hours/ns, 288.652 timesteps/s
99.0% CPU use with 6 MPI tasks x no OpenMP threads

MPI task timing breakdown:
Section |  min time  |  avg time  |  max time  |%varavg| %total
---------------------------------------------------------------
Pair    | 1011.7     | 1032.9     | 1072.9     |  64.7 |  5.96
Neigh   | 29.915     | 30.598     | 31.194     |   7.9 |  0.18
Comm    | 255.35     | 298.39     | 322.26     | 130.1 |  1.72
Output  | 558.46     | 558.46     | 558.49     |   0.0 |  3.22
Modify  | 15384      | 15387      | 15389      |   1.3 | 88.83
Other   |            | 14.93      |            |       |  0.09

Nlocal:    42.6667 ave 50 max 39 min
Histogram: 2 0 1 2 0 0 0 0 0 1
Nghost:    1199.33 ave 1236 max 1156 min
Histogram: 2 0 0 0 0 0 2 0 0 2
Neighs:    3646 ave 4389 max 3327 min
Histogram: 3 0 1 0 0 1 0 0 0 1

Total # of neighbors = 21876
Ave neighs/atom = 85.4531
Neighbor list builds = 252784
Dangerous builds = 2

write_data	data.final.${p_id}
write_data	data.final.0
Total wall time: 4:48:42
