LAMMPS (8 Feb 2019)
Processor partition = 0
echo both

include         in.partitions
variable p_id world   0
include		in.temp
variable	temperature equal 2000.0
variable	tempDamp equal 0.1 # approx 0.1 ps
include		in.pressure
variable	pressure equal 300000.
variable	pressureDamp equal 1.0
include 	in.seed
variable	seed world 74581
units		metal
read_restart    Restart.lmp.${p_id}
read_restart    Restart.lmp.0
  restoring atom style atomic from restart
  orthogonal box = (0.466064 0.466064 0.466064) to (15.7179 15.7179 15.7179)
  2 by 1 by 3 MPI processor grid
  pair style eam/alloy stores no restart info
  256 atoms
include 	in.setup
variable	out_freq equal 500
variable	out_freq2 equal 500

neigh_modify    delay 10 every 1
include		in.al
### Argon Potential Parameters ###
pair_style 	eam/alloy
pair_coeff 	* * Al99.eam.alloy Al

timestep	0.002 # According to Frenkel and Smit is 0.001

thermo          ${out_freq}
thermo          500
thermo_style 	custom step temp pe press lx


restart 	${out_freq} Restart.lmp.${p_id} Restart2.lmp.${p_id}
restart 	500 Restart.lmp.${p_id} Restart2.lmp.${p_id}
restart 	500 Restart.lmp.0 Restart2.lmp.${p_id}
restart 	500 Restart.lmp.0 Restart2.lmp.0



timer 		timeout 23:50:00 every 1000
New timer settings: style=normal  mode=nosync  timeout=23:50:00

# NPT

include		in.dump
dump            myDump all atom ${out_freq2} dump.na.${p_id}
dump            myDump all atom 500 dump.na.${p_id}
dump            myDump all atom 500 dump.na.0
dump            myDcdDump all dcd ${out_freq2} out.${p_id}.dcd
dump            myDcdDump all dcd 500 out.${p_id}.dcd
dump            myDcdDump all dcd 500 out.0.dcd
dump_modify	myDump append yes
dump_modify     myDcdDump append yes



fix             1 all plumed plumedfile plumed.dat outfile plumed.out
fix             2 all nph iso ${pressure} ${pressure} ${pressureDamp}
fix             2 all nph iso 300000 ${pressure} ${pressureDamp}
fix             2 all nph iso 300000 300000 ${pressureDamp}
fix             2 all nph iso 300000 300000 1
Resetting global fix info from restart file:
  fix style: nph, fix ID: 2
fix             3 all temp/csvr ${temperature} ${temperature} ${tempDamp} ${seed}
fix             3 all temp/csvr 2000 ${temperature} ${tempDamp} ${seed}
fix             3 all temp/csvr 2000 2000 ${tempDamp} ${seed}
fix             3 all temp/csvr 2000 2000 0.1 ${seed}
fix             3 all temp/csvr 2000 2000 0.1 74581
fix             4 all momentum 10000 linear 1 1 1 angular

run             25000000 upto # 50 ns
All restart file global fix info was re-assigned
Neighbor list info ...
  update every 1 steps, delay 10 steps, check yes
  max neighbors/atom: 2000, page size: 100000
  master list distance cutoff = 8.28721
  ghost atom cutoff = 8.28721
  binsize = 4.1436, bins = 4 4 4
  1 neighbor lists, perpetual/occasional/extra = 1 0 0
  (1) pair eam/alloy, perpetual
      attributes: half, newton on
      pair build: half/bin/atomonly/newton
      stencil: half/bin/3d/newton
      bin: standard
Per MPI rank memory allocation (min/avg/max) = 4.005 | 4.131 | 4.382 Mbytes
Step Temp PotEng Press Lx 
 4999500    2037.4039    -718.3897    304957.17    15.251871 
 5000000    1899.1176   -713.48363     307786.9    15.229359 
 5000500    2043.3623   -711.85934    306927.64    15.238128 
 5001000    1895.3371   -706.43411    313626.36    15.226379 
 5001500    1920.5872   -709.08039    305969.99    15.221396 
 5002000    2174.5005   -712.50201    290821.44    15.291004 
 5002500    2061.8304   -725.17363    279682.98    15.331009 
 5003000    1860.7993   -721.43868    281509.38    15.332219 
 5003500    1897.9252   -713.05469    292989.59    15.274465 
 5004000    1988.8727   -714.95767       295362    15.278641 
 5004500    1779.0789    -710.4255    298195.18     15.27838 
 5005000    2069.1958   -698.12563    310413.08    15.261242 
 5005500    1846.6597   -702.72108    314827.31    15.239045 
 5006000    2121.1435    -701.9643    305262.08    15.247962 
 5006500    1945.0231   -707.98987    305408.73    15.251231 
 5007000    2062.1394   -710.27243    305893.22    15.270703 
 5007500    2015.0238   -705.37257     314581.1    15.217657 
 5008000    2094.4826   -707.18678     319181.7    15.184014 
 5008500     2015.967   -708.98012    307815.65    15.203471 
 5009000    2059.3433   -708.07813    300447.16    15.192423 
 5009500    2041.8296   -715.87693    297260.39    15.269505 
 5010000    1860.0241    -717.5729    298375.17    15.257784 
 5010500    2062.0967   -716.74596     295805.5    15.262448 
 5011000    1991.1178   -722.45398    310987.11    15.236825 
 5011500    1926.9865   -735.79989     310791.2    15.188325 
 5012000    1922.1576   -734.57839    313650.89    15.181254 
 5012500    2192.2436   -736.23497    303198.26    15.246492 
 5013000    2158.1375    -729.7052    303748.94    15.260068 
 5013500    1832.3413   -724.93257    288827.49     15.30916 
 5014000    2138.9757   -731.01682    288688.67     15.31686 
 5014500    2056.1197   -726.55094    294386.95    15.288783 
 5015000    2099.5226   -726.94565    298908.07    15.242256 
 5015500    2023.9869    -723.0572     305315.2    15.235452 
 5016000    1961.3758   -736.16789    303261.12    15.239077 
 5016500    1987.8286   -729.40315    284602.16    15.342772 
 5017000    2140.2208   -736.88465    276510.85    15.351713 
 5017500    1943.1405     -731.884    277300.42     15.36135 
 5018000    1959.0126   -721.77353    296217.98    15.280298 
 5018500    1906.9131   -725.91614    300330.44    15.265832 
 5019000    2026.0472   -727.40795    314021.88    15.214198 
 5019500    2017.0926   -729.30484     318961.8    15.186001 
 5020000    1988.2377   -723.05359    303309.12    15.252049 
 5020500    1982.5586   -723.87337    293604.06    15.281254 
 5021000    1977.9201   -729.10139    280983.41    15.346181 
 5021500     2002.469   -727.17406    286496.62    15.302882 
 5022000    2018.2172   -731.34793    281912.27    15.334235 
 5022500    1919.8253   -730.00252    282758.17    15.326178 
 5023000    2094.3391   -737.90742    293432.54     15.27032 
 5023500    1913.9998   -734.65055    310009.24    15.190626 
 5024000    2361.4423   -743.94974    309774.77    15.187075 
 5024500    2227.3841   -744.86921    299689.73    15.218148 
 5025000    1889.8466   -724.91462    295103.05    15.286553 
 5025500    1943.3143   -754.37928       269926    15.320168 
 5026000    2012.5503   -743.62993    284234.17    15.303795 
 5026500    1903.7472   -723.53049    307910.91    15.239328 
 5027000    1995.2228   -731.78417    311741.68    15.211689 
 5027500    2037.9387   -730.79273    308045.73    15.230301 
 5028000    2088.5834   -722.43175    306746.56    15.229062 
 5028500    2030.0995   -706.81299    323326.73    15.185286 
 5029000     1995.478    -713.7386    319239.16    15.201275 
 5029500    1944.9047   -727.58969    313594.75    15.199795 
 5030000    1894.6893   -727.03546    305054.29    15.217302 
 5030500    1942.6198   -734.39063    304890.34    15.210764 
 5031000    2004.7578   -723.61512    321332.59     15.18217 
 5031500    2217.5126   -721.22991    315462.16    15.229743 
 5032000    1991.2165   -716.78761    305712.43    15.241684 
 5032500    2040.4942   -720.06608    303494.94    15.251777 
 5033000    1844.4892   -723.44781    288184.79    15.287067 
 5033500    1945.3452   -719.45398    291028.29    15.286573 
 5034000    2084.9729   -720.21907    298369.79    15.297449 
 5034500    1980.1111   -726.34824    293173.07    15.279133 
 5035000    2111.5284   -738.32836    294317.72      15.2664 
 5035500    1957.1158   -734.85437    303865.11    15.238766 
 5036000    1944.6151   -723.36554    310183.41    15.214198 
 5036500    1961.0892   -733.26937    295642.87    15.266729 
 5037000    2144.4328   -746.16217    282050.34    15.317638 
 5037500     1991.259   -741.43166    289395.85    15.283708 
 5038000    2065.2291    -735.7267    293446.54    15.303198 
 5038500     1958.878    -742.6157    285103.53    15.287323 
 5039000    1940.9392   -741.34681    285041.38    15.289778 
 5039500    1937.5164   -736.46512    292260.16    15.292246 
 5040000    2142.2594   -730.53849    298863.63    15.269762 
 5040500    2046.1354   -732.00239     290050.8     15.28017 
 5041000    1867.9423   -721.30049    321395.96    15.177346 
 5041500    2153.7313    -739.7391     314075.4    15.183382 
 5042000    2058.9621   -741.41023    309562.33    15.192113 
 5042500    2016.7917   -734.38495    304126.35    15.223176 
 5043000    2144.2113   -740.80926     289770.1    15.294104 
 5043500    2066.1531   -730.78954    295071.78     15.29622 
 5044000    1887.4063   -725.36549    291947.47    15.266827 
 5044500    1965.2922   -722.76929    288832.14    15.298582 
 5045000    1901.5283   -720.76924    291021.22    15.305497 
 5045500     2221.147   -721.04407    293651.22    15.310143 
 5046000    2060.8407   -715.09609    298659.63    15.264856 
 5046500    2024.7857   -720.85098    299748.98    15.266155 
 5047000    2007.1485   -712.79081    320325.69    15.195641 
 5047500    1993.7696   -723.21876    314829.94    15.220886 
 5048000    1896.9672   -729.52353     312461.7    15.186054 
 5048500     2146.065    -735.0172    299562.28    15.254374 
 5049000    1781.1368   -742.96696    289828.21    15.240505 
 5049500    2121.8395   -749.59259    289055.08    15.262152 
 5050000    1978.9485   -748.37556    292151.39    15.257426 
 5050500    2186.7915   -748.16284    292984.24    15.264785 
 5051000    2028.8522   -745.87537    304819.31    15.210207 
 5051500    2191.7997   -712.13395    320945.16    15.179575 
 5052000    1916.1707   -724.99381     311250.1    15.201447 
 5052500    2320.6356   -743.60344    300799.79    15.224744 
 5053000    2072.8633   -734.46203    302922.31    15.248594 
 5053500    1981.3879   -730.74905     320555.2    15.179879 
 5054000    2042.0936   -740.65753    310238.07    15.176024 
 5054500    1998.1818   -736.74089    293501.64    15.274213 
 5055000    1991.8106   -720.45473    296852.53    15.300767 
 5055500    2228.8295   -722.29865    296456.08    15.287175 
 5056000    2013.7817   -709.95662    306195.21     15.27488 
 5056500    2017.8899   -722.14657     304931.7    15.247506 
 5057000    1856.0452   -739.65181    275956.41    15.312179 
 5057500    1970.1115   -744.50858    282286.63    15.296323 
 5058000    2043.2393   -726.03087    295450.86    15.292746 
 5058500    1943.7462   -735.17596    302554.08    15.230755 
 5059000    2069.8648   -730.89615    306363.17    15.243485 
 5059500    2143.7631   -720.01136    317909.76    15.215565 
 5060000    2070.5519   -722.40615    314349.27    15.223679 
 5060500    2105.1977   -732.51651    312087.05    15.208766 
 5061000    1877.6331   -733.73478    307322.41    15.216294 
 5061500    2049.2133   -739.34077    292084.19    15.277524 
 5062000    1972.6431   -739.07257    297695.68    15.263761 
 5062500    1997.5766   -735.02173    300917.33    15.248862 
 5063000    2058.4877   -739.21187    313008.03    15.184772 
 5063500    1802.3185   -745.49651    298865.84    15.210499 
 5064000    1867.9448   -753.78167     274389.9    15.306402 
 5064500    2006.8858   -743.50602     300211.4    15.250953 
 5065000    2124.5234   -738.72385    298821.59    15.251147 
 5065500    1891.6517   -724.56808    311058.39    15.218088 
 5066000    1945.9614   -728.72422    308084.63    15.216206 
 5066500    2038.5073   -723.51151     323005.2    15.173996 
 5067000    2072.5339   -726.58546    325154.09    15.155612 
 5067500    2188.5235   -737.37738    299962.76     15.25315 
 5068000    1880.2977   -717.46497    306446.31    15.238795 
 5068500    2171.5634    -725.5234    293864.63    15.270035 
 5069000    1996.1296   -728.38429    296509.75    15.297054 
 5069500    2213.1133   -725.10223    308511.75    15.251217 
 5070000    1897.2721    -733.0946    284964.46    15.311817 
 5070500    1833.2605   -747.74394    295235.54    15.226371 
 5071000    1912.7029   -746.55594    293850.93    15.230485 
 5071500    1995.0681   -756.57815    290306.83    15.225994 
 5072000     1936.735   -746.45405    295066.39    15.237854 
 5072500    2236.4979     -733.645    300147.61    15.258634 
 5073000    1934.1387   -715.64482    313642.95    15.234976 
 5073500    2127.3626   -748.29496    275990.62    15.325316 
 5074000    2028.1217   -734.43844    284950.53    15.312855 
 5074500    1998.6684   -733.52909    301271.38    15.239926 
 5075000    2017.2422   -739.18251    301469.98    15.228978 
 5075500    2066.3807   -741.94528    297076.86    15.229516 
 5076000    1907.9858   -744.41869    290745.52    15.248368 
 5076500    2013.7506   -745.82343    311913.23    15.157184 
 5077000    1967.6458   -748.94455    323092.98    15.109883 
 5077500    2150.3183   -739.76215    305021.78    15.231732 
 5078000    1956.2454   -744.99049    291669.91    15.249805 
 5078500    1964.7857   -743.51295    282950.86    15.286752 
 5079000    1869.4016    -729.7131    287951.67    15.293181 
 5079500    2063.1365   -729.86632    297688.68    15.270568 
 5080000    2293.6914   -728.23801    319922.34    15.196154 
 5080500    2220.4172   -723.90729     320834.2    15.175748 
 5081000    2171.3226   -737.97716    306288.75    15.233308 
 5081500    1945.4099    -734.1054    300735.72    15.261662 
 5082000    1700.3825   -745.30237    273530.46    15.345941 
 5082500    2036.9803    -735.2588    294888.39    15.282472 
 5083000    1909.0783   -729.80627    295902.13    15.279647 
 5083500    1933.0493   -746.21242     297088.1    15.235724 
 5084000    1768.2027   -730.49587    301909.33    15.226751 
 5084500    2100.0484   -743.78713    293062.57    15.235473 
 5085000    2208.3879   -724.38479    301785.95    15.264831 
 5085500    1796.9375   -713.25694    316697.49    15.205497 
 5086000     1989.472   -729.26582    297711.29    15.275149 
 5086500    2060.0424    -722.6623    289533.17    15.318319 
 5087000    1918.8609   -723.84417    290287.39    15.312208 
 5087500    1998.3644   -712.07989    298070.92     15.28645 
 5088000    1974.2735   -730.42944    297669.58    15.274776 
 5088500    2001.5049   -724.85252    293073.77    15.312044 
 5089000    1878.2993   -728.46232    298564.73    15.259593 
 5089500    1924.7782   -728.98539    300219.87    15.260486 
 5090000    2230.6796   -734.07129    298518.29    15.281366 
 5090500    2065.7037   -735.67845    289007.53     15.29767 
 5091000    1881.2946   -755.49027    286675.84    15.235477 
 5091500      2015.58   -747.01771    294507.46    15.234212 
 5092000    1969.1889   -729.48624    309164.26    15.222452 
 5092500    2143.0933    -734.8735    306726.18    15.241654 
 5093000    2133.9844   -743.60905     300654.6    15.224444 
 5093500    2027.6213   -730.68818    324332.87    15.148799 
 5094000     2191.067   -741.05733    312871.73    15.194395 
 5094500    2129.2084   -746.10261    293902.69    15.232687 
 5095000    2028.1031    -751.4968     292602.4    15.244997 
 5095500     2057.409   -738.87853    294751.82    15.271029 
 5096000    1873.4051   -736.28958    293373.17    15.275141 
 5096500    2110.4494   -739.19417    296632.47    15.267202 
 5097000    2167.6373   -748.83158    285719.52    15.297093 
 5097500    2065.3918   -751.52265    280176.26    15.306834 
 5098000    1978.4039   -731.87087     299326.2    15.257175 
 5098500    2015.7753   -735.96799    311263.06    15.200375 
 5099000     2158.044   -737.26574    300598.07    15.257067 
 5099500    2033.6621   -734.18599    289972.38    15.315165 
 5100000    1843.9421   -733.85479    289838.56     15.29396 
 5100500    2055.2094   -735.71426    307003.68    15.231528 
 5101000    1978.5282   -739.56173       290550    15.268353 
 5101500    1857.7613   -740.46136    296731.83    15.245496 
 5102000    1955.5294   -737.46908     293571.3    15.276717 
 5102500    1970.1584   -733.37621    289732.88    15.301582 
 5103000    1870.1345   -734.75501    281119.13    15.317604 
 5103500    1901.8939   -725.33151    288006.97      15.3066 
 5104000     2014.359   -720.05213    304631.45    15.263385 
 5104500    1925.8453   -714.70116    304263.36    15.240733 
 5105000     1930.527   -716.74351    297247.41    15.281569 
 5105500    1980.6785    -732.2271    293381.15    15.275147 
 5106000    2094.7742   -750.45199    284896.52    15.288537 
 5106500    1923.5121   -742.72576    278657.28    15.303136 
 5107000    1913.8516   -739.71811    295200.31    15.247601 
 5107500    2362.0203   -736.77896    305150.29    15.238799 
 5108000    2046.2245   -737.20711     301242.9    15.246786 
 5108500    2013.6963   -735.07599    309777.97    15.219454 
 5109000    2193.8665   -751.48646    303122.78    15.181602 
 5109500    1951.7675   -746.18574    296607.46    15.230824 
 5110000    1969.0233   -746.36205    286095.36     15.27815 
 5110500    1853.4052   -738.53382    305524.33    15.202823 
 5111000     2010.557   -727.97519    318770.09    15.169603 
 5111500    1957.4624   -724.38524    336196.98    15.107504 
 5112000     1825.995    -739.4388    301322.07     15.22897 
 5112500    1935.8485   -743.59701     292625.7    15.245085 
 5113000    2131.8388   -752.85003    285299.73    15.284208 
 5113500    1865.0778   -738.46109    294690.92    15.250337 
 5114000    2144.5651   -722.98407    312078.97     15.21048 
 5114500    2178.3116   -722.00527    309502.06    15.230041 
 5115000    1995.3716   -716.58982    312362.89    15.219134 
 5115500     2022.009   -731.95855    301438.13    15.239436 
 5116000     2060.156   -741.87911    288764.54    15.276216 
 5116500    1867.9778   -749.91188    276042.03    15.309526 
 5117000    1883.3847   -757.36741    283075.49    15.240368 
 5117500     1934.764   -741.81446    293817.72    15.256769 
 5118000    2031.4372   -749.72485    301399.67    15.206993 
 5118500     2099.474   -751.00393    292716.87    15.233786 
 5119000    2086.5024   -748.54855    277621.34    15.319806 
 5119500    1946.9787   -739.67312    289061.28    15.270982 
 5120000    2089.0963   -745.30228    301495.36    15.226277 
 5120500    1845.9358   -724.68481    304472.13    15.252389 
 5121000    1958.7289   -721.98857    293925.15    15.287339 
 5121500    2017.0715   -719.95985    314201.74    15.227957 
 5122000    2190.0456   -729.45947    312599.17    15.222358 
 5122500    1937.5058   -726.61198     301461.9    15.256604 
 5123000    1935.7385   -714.20559    308987.89     15.23736 
 5123500    2250.9481    -737.7815    297373.66    15.259112 
 5124000     1938.883   -735.15627    296235.54    15.254213 
 5124500    2014.2798    -750.3951    276800.48    15.316977 
 5125000     2063.391   -720.31014    293450.45    15.293952 
 5125500     2120.082   -733.36095    291239.46    15.289369 
 5126000    1981.3329   -738.12198    294036.82    15.271526 
 5126500    2037.3524   -722.06081    296251.93    15.284836 
 5127000    1969.4855   -715.12923    288563.77    15.299802 
 5127500    1804.1175   -713.85202    293944.47    15.294463 
 5128000    2188.1642   -718.53033     289620.7    15.321763 
 5128500    2001.3653   -727.16836    277781.32    15.351603 
 5129000    1905.3018   -728.19459     279202.9    15.335686 
 5129500    1992.8573   -741.34923     292185.1    15.265028 
 5130000    2100.9445   -743.86889    297897.33    15.243423 
 5130500    1880.3659   -741.00689    311266.66    15.183888 
 5131000    1993.3885   -752.73424    299735.92    15.199521 
 5131500    2005.7217   -760.42687    302165.23    15.171535 
 5132000      2024.92   -720.83048    312282.94    15.222577 
 5132500    2102.5371   -729.24982    316829.17    15.196834 
 5133000    2055.3425   -729.95588    308452.96    15.217049 
 5133500    2004.8814   -750.01906    295308.58    15.226677 
 5134000    1961.3092   -743.69593    289032.88    15.272709 
 5134500    1899.5737   -760.23684    265758.43    15.323994 
 5135000    1874.3062   -728.40746    299693.36    15.256728 
 5135500    2185.1597   -720.49329    314250.18    15.231467 
 5136000    1979.0134    -717.9569    313315.87    15.231248 
 5136500    2033.1481   -717.99809    320103.58     15.22617 
 5137000    1964.6409   -706.92713    320556.34    15.201157 
 5137500    1990.5339   -706.13756    323812.64    15.184393 
 5138000    2030.0075   -721.84618    300464.17    15.246316 
 5138500     2007.507   -714.57289    301267.79    15.260452 
 5139000    1899.5356    -722.4118    293177.29    15.280462 
 5139500    2125.9682   -718.15836    299983.36    15.253183 
 5140000    1967.9126   -709.45733    313858.63    15.213154 
 5140500    1757.4647   -716.37716    301958.42    15.259765 
 5141000    1968.9796   -743.63131    281776.76    15.301938 
 5141500    2027.5929   -740.76923    290777.34    15.288753 
 5142000    1920.9375   -730.80443    293100.27      15.2765 
 5142500    2036.9914   -728.54754    302592.44    15.249126 
 5143000    1933.7114   -740.33772    297726.47    15.251692 
 5143500    2024.7081   -740.83796    296269.97     15.26622 
 5144000    2097.7238   -733.30772    299155.72    15.273519 
 5144500     1937.503   -732.67655    306275.62    15.231982 
 5145000    2149.0175   -735.82517    299793.96    15.239337 
 5145500    2028.6891   -731.67685    324998.27    15.141099 
 5146000    1984.3882   -731.34466    315662.56    15.191225 
 5146500    2019.0155   -746.44599    302355.99    15.208775 
 5147000    1944.6118   -744.23753    294987.44     15.23579 
 5147500    1928.8023   -726.50388    304604.28    15.220767 
 5148000    2166.2509   -724.16586    309244.97    15.257674 
 5148500    2000.7523   -751.41975    286431.99    15.250135 
 5149000    1828.6804   -747.97748     296790.5     15.21498 
 5149500    2148.7358   -749.48668    310917.86    15.165677 
 5150000    2031.2515   -740.04557    316316.97    15.163051 
 5150500    1904.7388   -747.83983    309735.62    15.166679 
 5151000    1863.7683    -738.9499     283017.2    15.299173 
 5151500    1940.8396   -735.96095    289327.68    15.309322 
 5152000    1995.8404   -725.95874    288254.17    15.308533 
 5152500    1974.8362   -725.14065    302569.34    15.253991 
 5153000    1922.9567   -736.61433     307823.7    15.202302 
 5153500    1987.7114   -749.45607    290722.42    15.255893 
 5154000    2065.1949   -760.31804    293722.07    15.209901 
 5154500    2071.2939   -752.74965    300214.34    15.190174 
 5155000    1922.7147    -744.6345    307083.26    15.182192 
 5155500     1878.933   -754.92446    286287.04    15.243182 
 5156000    1825.3227   -731.46077    304819.59    15.220997 
 5156500    2030.4535   -738.79317    317625.45    15.156361 
 5157000    1953.5131   -729.65873    319732.46    15.174032 
 5157500    1991.6168   -740.96363     314503.1    15.174664 
 5158000    1778.5807    -744.0957    298036.38    15.219492 
 5158500    2062.1103   -742.06554    294488.94    15.274307 
 5159000    1839.0897   -735.64649    298098.76    15.260993 
 5159500    1809.8688   -744.87287    270437.53    15.344024 
 5160000    1869.5811    -735.7489    287482.86    15.303383 
 5160500     2102.846   -727.26171    304099.54      15.2425 
 5161000    2264.2197   -728.93127    309730.58    15.240967 
 5161500    1940.6977   -714.54795    320664.31    15.199526 
 5162000    2002.8453   -728.63578    312625.17    15.207592 
 5162500    2069.5103   -736.49617     298221.9    15.253951 
 5163000     2125.343   -741.72528    291043.76    15.275787 
 5163500    2037.3838   -734.63721    293283.43    15.300545 
 5164000    2082.3664    -744.0669    285722.53    15.292208 
 5164500    1977.9297   -744.94191    299469.97    15.225242 
 5165000    1939.7088   -747.62395    299374.28    15.217476 
 5165500    1954.4418   -734.96047    303517.76    15.242972 
 5166000    2018.5156   -744.24096    294954.91    15.237703 
 5166500    1962.2667   -750.53833    288172.86    15.245609 
 5167000    2043.6942   -743.09535    288598.01    15.287202 
 5167500    1929.5807   -740.05061    291149.47    15.273813 
 5168000    2079.3311   -744.75753    289466.55    15.287018 
 5168500    1891.1836   -734.30551    307993.13    15.213571 
 5169000    2059.1697   -722.14731    308933.94    15.219108 
 5169500    2138.0823   -731.89844    315418.02    15.178324 
 5170000    2080.3205   -733.90674    307891.13    15.209065 
 5170500    2125.7682    -726.9776    306145.29    15.255689 
 5171000    2107.4941    -733.9322     297603.3    15.272551 
 5171500     1912.921   -728.09367    301146.98    15.251217 
 5172000    1967.0202   -730.91141     290168.7    15.280462 
 5172500    2071.0536   -724.08997    294084.44    15.268968 
 5173000    2208.1796    -730.7125    285735.72    15.347365 
 5173500    1916.6566   -718.82917     294473.7    15.306336 
 5174000    1933.3749   -722.56829    292241.15    15.309133 
 5174500    2196.6161   -741.47123     284135.6    15.314169 
 5175000     1973.211   -730.84786    291527.41    15.286825 
 5175500    1990.9941   -724.61097     305654.5    15.218722 
 5176000    2044.7724   -720.32035    305963.01    15.247646 
 5176500    2034.7447   -715.89309    316093.34    15.222394 
 5177000    1908.1682   -710.66258    306290.64    15.221793 
 5177500    1880.3932   -713.23656    299949.16    15.262003 
 5178000    2132.0959   -722.48774    293895.95    15.290293 
 5178500    2249.9622   -715.62039    306362.99    15.235418 
 5179000    2052.4979   -704.37485    307520.71    15.196505 
 5179500    2243.6979   -710.24906     306353.9    15.235407 
 5180000    2059.7528   -717.98817    300281.85    15.239937 
 5180500     2137.996   -712.96907     308358.9    15.251169 
 5181000    2247.8934   -705.38854    319707.73      15.1597 
 5181500    1884.4145   -706.71947    304093.93    15.215217 
 5182000    1913.6621   -710.25573    305816.27    15.237501 
 5182500    2133.1813    -717.4094    307684.78     15.22309 
 5183000    1980.5739   -714.82383    300417.36    15.234938 
 5183500    1909.6528   -710.14199    309230.76    15.212204 
 5184000    2084.0827   -713.90905    297802.65    15.267474 
 5184500    2043.2608    -711.0507    297579.87    15.287342 
 5185000    2052.9408   -717.58843    278091.76    15.344278 
 5185500    1946.8497   -716.94805    295675.09    15.243854 
 5186000    2040.7866    -718.4303       305818    15.231258 
 5186500    1850.8585   -714.27442    302180.11    15.264227 
 5187000    2320.1217    -722.1804    294556.24    15.276393 
 5187500    2008.4353    -716.9165    312464.29    15.213173 
 5188000    2133.6266   -710.63342     319615.6    15.185891 
 5188500    2114.5473   -719.07746    305023.22    15.215857 
 5189000    2108.0611   -718.25396    292040.73    15.273001 
 5189500    2132.9734   -714.78872    288457.12     15.31664 
 5190000    1917.6516   -718.20202     304756.2    15.259867 
 5190500    1975.1798   -706.99402    284249.97    15.193946 
 5191000    2105.4723   -715.13194    295707.88    15.294762 
 5191500    2011.2959   -715.00968    297506.46    15.287091 
 5192000    2131.8197   -710.11527    305108.25    15.253122 
 5192500    1971.2331   -709.77771    296530.66    15.290604 
 5193000    1892.8574   -716.91236    293949.12     15.29004 
 5193500    2110.6522   -720.74219    290492.17    15.305398 
 5194000     1993.856   -710.51076    300417.79     15.28446 
 5194500    2022.1556   -710.61407     288172.3    15.358106 
 5195000    1974.9394   -716.74269     293359.5    15.299318 
 5195500    1971.8335   -709.82675    290543.95    15.357568 
 5196000    1911.1754   -712.12772    287498.72    15.325245 
 5196500    1920.5732    -705.8295    296105.01    15.324485 
 5197000    2025.2849   -706.01828    307810.78    15.275272 
 5197500    1901.8633    -709.6233    306710.54    15.252976 
 5198000    2015.7555   -709.34218    307388.78    15.265531 
 5198500    2094.4865   -711.83581    300950.41     15.29658 
 5199000    2110.2463   -715.77208    290965.97    15.337595 
 5199500    2059.1833   -720.24459    276366.46    15.377748 
 5200000    1939.3068   -718.51624    281553.59    15.342842 
 5200500    1928.4776   -714.68782    290903.97    15.342715 
 5201000    1996.7804   -715.54299    283369.78     15.37563 
 5201500    2050.9847   -710.80985    294468.03    15.370438 
 5202000    2116.0444   -712.36791    297436.09     15.31742 
 5202500    2057.1287   -710.10734    297256.96    15.319849 
 5203000    2140.4375   -701.95107    309509.83    15.274909 
 5203500    2141.3098   -702.87592    311817.03    15.255528 
 5204000    2145.6619    -709.4614    300914.67    15.283796 
 5204500    1992.1175   -704.86126    310155.65    15.290378 
 5205000    2181.2554   -706.18519    309702.63    15.299278 
 5205500    1981.0203   -711.82469    302988.64    15.277784 
 5206000    1891.1533   -702.95075    302195.11    15.282023 
 5206500    1963.4827    -704.0353    304555.35    15.308758 
 5207000    1867.0684   -717.32046    292206.55    15.279526 
 5207500    1854.4005   -714.99407    295240.22    15.283413 
 5208000    2083.8904   -719.45155    288759.61    15.286884 
 5208500    2109.5028   -716.29184    289772.74    15.327821 
 5209000    1980.3503   -707.54468    305330.09    15.297928 
 5209500    1977.6329   -705.79053    307814.21     15.26441 
 5210000    2232.4773   -707.14608    312491.04    15.211189 
 5210500    1691.3058   -700.06978    311550.79    15.236607 
 5211000    1919.9859   -704.13094    319642.51    15.156795 
 5211500    1804.8656   -710.24916    306431.74     15.21245 
 5212000    1914.5286   -708.10392    306508.29    15.235061 
 5212500    2112.5499   -710.68221    301709.19    15.269183 
 5213000    1972.5264   -703.58774     312494.8    15.225217 
 5213500     2019.863   -707.71357    306291.34    15.245228 
 5214000    2055.5659   -714.09133    297426.19    15.283628 
 5214500    1987.1442   -712.33939    293319.67    15.264789 
 5215000    2034.6132   -714.41644    299157.42    15.228154 
 5215500    1936.0855   -714.11851    292505.16    15.283419 
 5216000    1780.0401   -715.85069    293123.33    15.262867 
 5216500    1893.5425   -713.31969    290695.35    15.266838 
 5217000    2118.1994   -721.75318    290690.15    15.310703 
 5217500    1851.6493   -719.64688    279114.89    15.335186 
 5218000    2000.7756   -716.16157    293804.96    15.280923 
 5218500    2121.5918   -712.18904    305622.65    15.256248 
 5219000    2052.0234   -713.69468     296702.2    15.253308 
 5219500    2259.1938    -701.3293    320089.98    15.189065 
 5220000     2183.598   -701.33412    312868.25    15.232115 
 5220500    2104.0603    -698.0205    314865.53    15.238038 
 5221000    2071.0051   -705.74264    317411.11    15.201843 
 5221500      2045.39   -707.77014    314288.65    15.197576 
 5222000    2030.4024   -701.79267    308278.82    15.217746 
 5222500    2035.5492   -717.73725    294142.38    15.276282 
 5223000    1800.8236   -715.33995     298959.3     15.27707 
 5223500    2022.1882   -725.71354     293218.6    15.316776 
 5224000    2061.5425   -731.61061    287129.13    15.317551 
 5224500     1905.803   -749.35195    287018.09    15.257037 
 5225000    2022.6045   -726.12578    299444.04     15.25394 
 5225500    1959.7461   -712.44063    312514.63    15.248845 
 5226000     1877.549   -711.43197    313789.27    15.216665 
 5226500    1841.8177   -712.69392    307422.92    15.232057 
 5227000     1896.709   -709.06243    307654.55    15.232755 
 5227500    1877.2254   -712.74079    301869.87     15.24607 
 5228000    1832.3224   -724.38485    298222.95    15.272904 
 5228500     1936.533   -736.87741    288187.69    15.291379 
 5229000     1986.539   -726.99726    305201.81    15.231383 
 5229500    2009.7167   -723.19085    305872.43    15.249615 
 5230000    1872.7073   -729.84128    300686.49    15.261467 
 5230500    2007.3381   -721.67469    298952.34    15.264297 
 5231000    1860.7031   -727.30144    300936.83    15.238434 
 5231500    2030.9203   -723.49401    289712.96    15.322535 
 5232000    1998.8788   -722.79624     299091.3    15.278408 
 5232500    1907.9764   -728.92212    296787.19    15.254595 
 5233000    1953.8041   -747.49606    293350.96    15.223362 
 5233500    1826.8223   -753.40602    278580.69    15.290605 
 5234000     2021.171   -739.29059    294915.12    15.275608 
 5234500    1998.5488   -729.37719    311750.14     15.22289 
 5235000    2031.2379   -726.86942    329201.49    15.143738 
 5235500     1889.835   -729.63085    306829.51    15.233019 
 5236000    1973.9944   -726.61353    288413.06    15.296044 
 5236500    1964.5898   -728.77427    287221.99    15.302914 
 5237000    1864.4019   -725.65588    290600.62    15.306233 
 5237500    1908.7755   -727.64746     292643.3    15.289577 
 5238000    2224.2461   -730.10547    303162.61    15.264454 
 5238500    1997.7001   -716.64238    297332.57    15.288264 
 5239000    1895.0504   -719.94382    290719.83    15.284559 
 5239500    1966.9111   -721.53245    294952.74     15.28883 
 5240000    1990.0525   -719.53488    291249.37    15.285297 
 5240500    2031.8531    -710.7372     303035.5    15.264259 
 5241000     1814.173   -719.52701    302351.41    15.244829 
 5241500    2090.4217   -714.94229     315003.9    15.235966 
 5242000    1991.8462   -724.24163    310474.61    15.215335 
 5242500    2042.3278   -741.60372    303354.43    15.217373 
 5243000    1934.4937   -742.61005    286774.05    15.282763 
 5243500    1978.1138   -758.91299    277946.64    15.276554 
 5244000    1890.9739   -736.68609    306021.19    15.219862 
 5244500    2087.5729   -738.09726    309926.28    15.183554 
 5245000    2130.8059   -757.95962    297009.23    15.199261 
 5245500    1880.7508   -749.38775    280728.64    15.290685 
 5246000    1900.9573   -752.87652    273060.38     15.32907 
 5246500    1735.4927    -736.4784    298553.79    15.240975 
 5247000    1781.6695   -734.65257    312582.63    15.186883 
 5247500    1965.2053   -735.17467    314108.17    15.190255 
 5248000     1961.222   -734.24651     297305.8    15.258461 
 5248500    2064.7487   -749.01317    285709.85    15.274572 
 5249000    1877.0242   -745.99054    290334.45    15.265332 
 5249500    2009.5471   -742.55158    284927.44    15.303443 
 5250000    1715.3187   -709.27443    313546.07    15.243912 
 5250500    2046.4632   -736.97346     296132.7    15.264237 
 5251000    2176.4825   -731.23442    308933.57    15.241833 
 5251500    2054.7581   -718.79856    313396.47    15.199457 
 5252000    2067.3925   -719.83578     316466.1    15.210637 
 5252500      2049.68   -732.82758    296743.85     15.27227 
 5253000    2019.0504   -741.25641    292097.23    15.274876 
 5253500    2047.2935   -735.96794    304695.55    15.227714 
 5254000      1918.56    -723.8656    313306.08    15.201288 
 5254500    2048.4178    -747.0703    312385.68    15.155378 
 5255000    2090.0611   -756.60708    279688.66    15.282537 
 5255500    1886.8983   -732.16928    281623.78    15.346821 
 5256000    1958.2153   -725.24245    286200.97    15.310138 
 5256500    1945.5404   -733.84659    278211.23    15.351509 
 5257000    1955.7664   -719.12496    301694.98     15.26126 
 5257500    1983.6563   -709.59611    294991.59    15.276761 
 5258000    1999.9625   -720.37414    304091.74    15.256287 
 5258500    2249.4755   -731.99582    286344.02    15.342469 
 5259000    2120.6852   -712.86826    310711.61    15.245881 
 5259500    1856.1406    -717.2548     306716.5    15.207695 
 5260000    2081.1549   -718.76777    291961.59    15.285425 
 5260500     2185.253   -715.71187    290632.64    15.303023 
 5261000    1803.2247    -713.5737    302198.57    15.245427 
 5261500    1997.5171   -712.20006    300594.67    15.234452 
 5262000    2063.8856   -702.55558    330751.96    15.138881 
 5262500    2140.5701   -708.07084    320587.64    15.184676 
 5263000    2102.5553   -704.37308    314743.09     15.21683 
 5263500    2171.3145   -708.28269    303983.99    15.258185 
 5264000     1868.509   -704.39589    307489.31    15.281636 
 5264500    2053.7538   -715.88657    292947.74    15.292866 
 5265000    1984.2506   -704.76965    308895.12    15.229492 
 5265500    1913.7873   -705.11515    304952.72    15.234791 
 5266000    2174.9581    -697.1055    324376.28    15.203887 
 5266500    1900.2387   -706.20224    311086.17    15.250687 
 5267000    2045.7188   -712.86521    298595.06    15.280345 
 5267500    1964.6417   -709.34981    306987.06     15.25738 
 5268000     2172.476   -716.05756    284480.78    15.308236 
 5268500    1998.1393   -715.05108    285677.88    15.331597 
 5269000    1972.6367   -719.05059    291100.82    15.312341 
 5269500    1903.7076   -713.89143    301003.59    15.247664 
 5270000    1934.2918   -716.66338    285993.28    15.317121 
 5270500    1993.6234   -714.64966    290407.62    15.335288 
 5271000    2042.6538   -711.69647    294922.17    15.318752 
 5271500    2073.9782   -715.96988    291932.24    15.348758 
 5272000    1983.5753    -716.6676    292739.61    15.315632 
 5272500    2148.7186   -706.56569     303765.3    15.274273 
 5273000    1892.7705   -700.66532    308712.58     15.28366 
 5273500    2079.7516   -706.79826       312017    15.236003 
 5274000    2126.1153   -710.49999     295182.7    15.272322 
 5274500    2006.7075   -708.48054    301577.53    15.271268 
 5275000    2076.8497   -716.99796    278664.02    15.290855 
 5275500    1859.3094   -716.07102    281685.95    15.332187 
 5276000    1909.6792   -721.90515    285935.99    15.309402 
 5276500    1900.4482   -703.82859    303576.55    15.272816 
 5277000    1975.1497   -703.83691    314614.68    15.215904 
 5277500    2010.0672   -704.52027    312016.45    15.225618 
 5278000    2124.7724   -706.06116     316649.9    15.239443 
 5278500    2041.4744   -713.96817     297558.8    15.291487 
 5279000    2032.0431   -712.11475    299517.95    15.319347 
 5279500    1884.7686   -698.40039     308717.3    15.266567 
 5280000     2027.172   -699.29163    315786.52    15.256522 
 5280500    2099.4453   -703.59662    310674.99    15.269319 
 5281000    2032.5965   -709.76573     308416.5    15.227505 
 5281500    1967.7061   -708.74616    295545.87    15.305321 
 5282000    2237.0665   -717.02147    283126.91    15.351877 
 5282500    1984.2929     -712.177    289710.68    15.328852 
 5283000     1978.263    -705.0039     305687.2    15.298613 
 5283500    1937.4288   -710.36717    296362.03      15.3219 
 5284000     2068.898    -714.2561    300945.29    15.287348 
 5284500    1930.4394   -717.99966    285235.47    15.308328 
 5285000     1933.864   -712.25805    297390.75    15.308679 
 5285500    2095.4618   -713.70776    296508.77    15.293499 
 5286000    1896.1938   -707.05136    288247.88    15.337815 
 5286500    2170.8987   -720.30786    284114.07     15.34861 
 5287000    1989.6681   -712.79288    287433.44    15.346749 
 5287500    2008.5004    -709.2006    305949.72    15.285498 
 5288000    2089.0006   -710.00324    296496.56    15.302948 
 5288500    1901.7449   -705.86021     305525.1    15.291076 
 5289000     1930.537   -699.99349    312060.76    15.284711 
 5289500    1917.4607   -704.74186    302630.38    15.319778 
 5290000    1939.7802   -701.43212     304156.8    15.277196 
 5290500    1991.4923    -707.7245    315068.92    15.221201 
 5291000    2001.6461    -709.7794    311441.78    15.214049 
 5291500    2065.3452   -711.88495    309609.07    15.173176 
 5292000    1923.1686    -703.3741    312234.95    15.208453 
 5292500    2058.4526   -715.04208    301993.02    15.250012 
 5293000     2132.269   -712.09931    292529.12    15.287122 
 5293500    1917.9985   -714.40341    295721.75    15.250821 
 5294000    2020.7292   -713.23296    297419.95    15.261765 
 5294500    2064.8888   -706.00979    314696.15    15.214415 
 5295000    2022.8008   -708.66405    302514.56    15.204428 
 5295500    2117.7436   -700.62114    321759.85    15.224881 
 5296000    1969.6276   -699.95823    327351.43    15.189176 
 5296500    2018.1251   -708.63642     310938.4    15.221105 
 5297000    1811.0983   -713.41505    299370.04    15.265601 
 5297500    2085.9339   -714.40036    300593.07    15.270218 
 5298000    1956.6833   -711.18876    293206.41    15.300447 
 5298500    2036.9863   -710.95321    297940.94    15.295063 
 5299000    2129.4208   -708.19258    320949.61    15.230205 
 5299500    2106.3562   -713.97528    300383.98    15.293802 
 5300000    2207.1988   -709.36662    311223.57    15.268953 
 5300500    1917.9642   -701.41912    310214.34    15.237662 
 5301000     2189.803   -698.74418     322830.6    15.240452 
 5301500    2082.6586   -692.14282    328817.09    15.177863 
 5302000    2146.8551   -703.76001    304349.54    15.290661 
 5302500    1895.5796   -703.39555    304699.61    15.288783 
 5303000    2002.0174   -703.17957     300084.2    15.300985 
 5303500    2090.0415   -702.54029    312336.69     15.27338 
 5304000    1963.6529   -711.39999    296310.91     15.28471 
 5304500    1816.8717   -716.44371    285622.35    15.318146 
 5305000    2066.5904   -711.16426    297228.24    15.314984 
 5305500    1951.5893   -704.57317    294841.91    15.331991 
 5306000    2174.9954   -706.57178    305830.74    15.275304 
 5306500    2052.3845    -701.6979    326732.51    15.241097 
 5307000    2255.7024   -704.72687    306864.67    15.284756 
 5307500    1995.9747    -707.0031    302213.82    15.277963 
 5308000    1890.7637   -709.20456    287015.95    15.329827 
 5308500    2001.5579   -718.24842    285666.89    15.250717 
 5309000    2169.5984   -712.91695    305475.92    15.239278 
 5309500    2061.8731   -707.07124    318540.56    15.188398 
 5310000    2095.7967   -709.24348    306759.71    15.244371 
 5310500    1974.3732   -715.36485    286127.12     15.31934 
 5311000    2004.2202   -707.32263    286971.79    15.343359 
 5311500    2092.6562   -706.57869    306875.41    15.279199 
 5312000    1890.9591   -709.26672    311298.16    15.212821 
 5312500    1887.4736   -706.95178    309926.68    15.231182 
 5313000    1976.8035   -704.03607    303567.23    15.264938 
 5313500    1968.0968   -701.30277    326762.77    15.175594 
 5314000    2108.8618   -704.02739    311952.44     15.24993 
 5314500    2083.8623    -713.8549    298785.29     15.26984 
 5315000    1993.3265   -713.53649    284459.34    15.277154 
 5315500    2138.9424   -699.74918    308354.92    15.248872 
 5316000    2050.3389   -712.25133    310372.35    15.219066 
 5316500    2026.1177    -716.0535    292212.27     15.29252 
 5317000    2003.9325   -725.72703    292558.58    15.295175 
 5317500    1937.2646   -719.51389    293284.72    15.287166 
 5318000    1988.7506   -719.47718    294949.76       15.306 
 5318500    2100.1375   -718.51974    287926.86    15.300964 
 5319000    2017.5868   -724.55977    281594.44    15.343317 
 5319500    2021.6896   -724.10225    276707.61    15.344047 
 5320000    2060.4877   -712.24339    287378.79    15.270951 
 5320500      2012.76   -708.32723     296743.6    15.267001 
 5321000      1914.52   -710.96781    302612.07    15.253217 
 5321500    2069.1061   -713.65583    311127.83     15.21434 
 5322000    2115.1994    -699.0346    314297.92    15.179464 
 5322500    1769.4273   -709.69187     311643.9    15.227024 
 5323000    1990.2565   -704.96841    300196.37    15.211384 
 5323500    2132.4594   -700.74546    318291.58    15.239113 
 5324000    2082.7746    -713.9566    298597.64    15.269829 
 5324500    2041.1731   -706.71597    297462.72    15.246688 
 5325000    2016.9498   -707.49992    314600.59    15.228584 
 5325500    2077.4679   -720.22713    287381.01    15.288862 
 5326000    2012.8072   -726.17445    267491.16    15.389463 
 5326500    2014.5777   -711.64997    286562.33    15.345418 
 5327000    1946.7701   -705.11338    306607.15    15.282492 
 5327500    2060.1531   -698.76605    312893.78    15.263216 
 5328000    2028.8232   -703.42811    306555.26    15.274277 
 5328500    2119.9232   -707.18585    304826.47    15.275319 
 5329000      1991.73   -709.85912    307361.06    15.268398 
 5329500    1939.9317   -711.22714    298730.34    15.273855 
 5330000    2098.8022   -707.46628     300981.9    15.265757 
 5330500    2107.1353   -703.20044    320783.11    15.216174 
 5331000    2091.8058   -701.20103    310518.62    15.230052 
 5331500    2042.9531   -725.11682    287507.44    15.295134 
 5332000    1999.3889   -712.37098    293169.03    15.258729 
 5332500     2225.358   -715.45055    292934.03    15.269983 
 5333000    1925.0991    -706.0817    300838.56    15.255638 
 5333500    1904.6836   -716.07169    294822.71    15.237708 
 5334000    1894.7545   -711.75677     296330.1    15.271865 
 5334500    2052.5608   -712.89017    297179.27    15.269612 
 5335000    1838.6568   -714.64696    284410.54    15.271243 
 5335500    1672.6019   -709.61942    303609.49    15.264773 
 5336000    1871.1515   -704.74257    289295.13    15.190999 
 5336500    2042.5556   -712.06594    300895.62    15.274418 
 5337000    1918.2054   -703.04342    317713.13    15.214303 
 5337500    2166.0082   -704.95858    307758.16    15.208569 
 5338000    1711.4969   -708.13887     306377.6     15.24743 
 5338500     2026.126   -710.16006    293039.15    15.303086 
 5339000    2283.2357   -715.86446    288033.47     15.33805 
 5339500    2077.7418   -717.14496    278521.12    15.347396 
 5340000    1957.0641    -721.9241    273310.12    15.353722 
 5340500    1843.2419   -718.86792    289184.67    15.246318 
 5341000    1645.6597   -717.06784    291413.56    15.260714 
 5341500    1962.4253   -715.25524    293459.07    15.265361 
 5342000    1989.0338   -718.29124    292187.49     15.27694 
 5342500    1990.3124   -709.51544    296444.09    15.266501 
 5343000    1890.0502     -710.484    294020.06    15.279146 
 5343500    1885.5424   -711.90243    303187.81    15.252908 
 5344000    1961.1175   -706.49818    300414.25    15.271418 
 5344500    2021.9219   -724.43659    300800.16    15.264402 
 5345000    1960.5207    -711.3176    311927.81    15.219372 
 5345500    2002.1767   -714.42667    303172.18    15.239566 
 5346000    2057.6258    -710.4682    314010.25    15.221507 
 5346500     2069.531   -714.00375    312141.29     15.23702 
 5347000    2112.6703    -711.9244    331554.49    15.115102 
 5347500    2194.9221   -715.61131     310974.3    15.232944 
 5348000    2180.6119   -712.78108    312246.08     15.24417 
 5348500    1850.8467   -724.01183    295826.82     15.26105 
 5349000    2127.7618    -723.2914    293890.59    15.274754 
 5349500    1989.9426   -726.32411    286669.08    15.332104 
 5350000    1996.8286    -737.7186    273730.52    15.359186 
 5350500    2089.0541     -735.182    290586.47    15.303229 
 5351000     2103.105    -753.9676    299310.19    15.193082 
 5351500    2096.6688   -733.65886    306230.55    15.230098 
 5352000    2137.6188   -725.98127    306122.14    15.230115 
 5352500    2068.8063   -737.75757    297038.52    15.258822 
 5353000    1879.3498   -728.33479    293955.62    15.255937 
 5353500    1950.8605   -720.33104     303179.4    15.268327 
 5354000    2168.0658   -721.65094    300688.82    15.279379 
 5354500    2069.0759   -732.39932     281266.2    15.313597 
 5355000    1986.0537   -733.91254    285214.98    15.315693 
 5355500    1867.6934   -733.96276    294137.94    15.270776 
 5356000    1989.9895    -726.6145    285040.23    15.338762 
 5356500    2001.3492   -738.91205    277508.42    15.325211 
 5357000    1950.4298   -743.81264    284965.88    15.307302 
 5357500    2059.5753   -735.53964    287297.65      15.3116 
 5358000    1933.8446   -744.91929    299504.98    15.235116 
 5358500    2088.9403   -717.79586     313973.5    15.202881 
 5359000    2140.6454   -735.50544    301143.77    15.262939 
 5359500    1988.7787   -730.19972     321083.3     15.16899 
 5360000    1875.8644   -734.39755    312341.26    15.176172 
 5360500    1844.2735   -735.19615    295447.25    15.245572 
 5361000    1847.7474   -740.46856    294847.59    15.237453 
 5361500    1895.0742   -729.84072    307625.18    15.232799 
 5362000    1950.0651   -733.35199    297537.69    15.257363 
 5362500    1988.0906   -739.21344    308205.55    15.194901 
 5363000     1978.134   -729.58075    314804.67    15.192983 
 5363500    2076.0171   -739.41502    301386.53    15.246651 
 5364000    2003.8034   -753.27788    287787.22    15.265234 
 5364500    2140.6832   -753.73818    281755.04    15.282424 
 5365000    2075.1018   -741.26689    302145.99    15.220131 
 5365500    2016.8802   -739.06509    306433.42    15.202009 
 5366000    1927.9595    -740.9094    310296.98    15.182288 
 5366500    2066.2998   -722.32824    307033.86    15.230157 
 5367000    2049.8198    -720.3817    303821.52    15.219932 
 5367500     2002.374   -713.78642    317759.96    15.226793 
 5368000    2002.6518   -720.95507    295890.31    15.264303 
 5368500    2039.0879   -734.91139    292949.03    15.260259 
 5369000    2009.4889   -734.15013    292514.87    15.261917 
 5369500    1985.1694   -733.19102    296501.29    15.260809 
 5370000    2086.2523   -734.27202    311669.65    15.201452 
 5370500     1980.508   -734.53455       318581    15.173147 
 5371000    1897.3062    -737.6131    311947.85    15.206813 
 5371500     1901.572   -734.88991    302724.94    15.237431 
 5372000    2010.7099   -741.37161     293645.5    15.259357 
 5372500    1831.6323   -730.50073    291541.07    15.278554 
 5373000    1960.4577   -731.23866     294714.2    15.272246 
 5373500    1853.1594   -723.43577    298776.37    15.255162 
 5374000    1848.7981   -730.60847    316388.85    15.170621 
 5374500    1987.8192   -726.44722     322491.7    15.164558 
 5375000    2138.8213   -729.95924    312463.91    15.216652 
 5375500    1776.7851   -750.39841    290736.95    15.227924 
 5376000    1887.4157   -757.54578    288170.01    15.230498 
 5376500    2207.9501   -757.41521    297473.48    15.205691 
 5377000    2168.0225   -755.75292    289154.16    15.244351 
 5377500    1929.7399   -750.78583    315209.49    15.133649 
 5378000    1921.6896   -747.00876     309893.5    15.165603 
 5378500    2031.3169   -743.62283    293950.09    15.264898 
 5379000    1942.2961   -742.50888    288438.88    15.283812 
 5379500    2033.3508   -746.74144    287088.69    15.266672 
 5380000    1669.1059   -741.02833    304442.06    15.201999 
 5380500     2082.127   -748.35853    310217.75     15.16815 
 5381000    2016.6359    -739.2696    311006.98    15.195339 
 5381500    1810.4929   -734.19528    295082.33    15.252854 
 5382000    2091.0282   -741.06813    296302.14     15.25672 
 5382500    1898.9876   -739.39821    294301.62    15.255801 
 5383000    1987.6824    -741.4842    300020.46    15.245038 
 5383500    2047.8442   -740.17013    276915.98    15.337244 
 5384000    2010.6736   -732.82349    283696.54     15.31732 
 5384500    2111.2152   -728.32342    301480.48     15.27431 
 5385000    2045.3153   -728.23986    292861.76    15.287362 
 5385500     1928.942   -718.08172    299577.66    15.249307 
 5386000    2000.9386   -715.79519    305688.88    15.248175 
 5386500    2114.1063   -720.79437    313049.34     15.20994 
 5387000    2075.9829   -719.23409    312898.52    15.240264 
 5387500    2045.0736   -712.92966    304103.89    15.239846 
 5388000    2070.9559   -715.21822    307094.17    15.252253 
 5388500    2012.4447   -722.93937    309634.81     15.23097 
 5389000    1956.6764   -715.61488     301879.8    15.253909 
 5389500    2046.7026   -717.18614    297524.27    15.282159 
 5390000     2134.891   -724.44471    279490.36    15.351163 
 5390500    1973.4496   -724.12308    288783.97    15.331477 
 5391000    1881.0535   -722.36197    297289.02    15.264495 
 5391500    2021.7413   -733.80268    294432.67    15.269968 
 5392000    2071.3811   -737.56193    299097.72    15.258552 
 5392500    2015.4227   -751.63122    296913.66    15.213048 
 5393000    2206.7849   -737.03984    306350.61    15.224645 
 5393500    1923.5539   -740.35823    311329.58    15.189823 
 5394000    2018.4932   -744.56959    297910.66    15.234635 
 5394500    1970.6175   -745.78942    295338.04    15.236294 
 5395000    1939.1408   -731.10331    293798.19    15.288594 
 5395500    2005.6576    -736.6494    307123.92    15.216855 
 5396000    1765.0735   -715.93577    307247.56    15.240773 
 5396500    1812.0726    -723.0588    295455.95    15.282739 
 5397000    1884.0397   -750.78593    290130.88    15.253852 
 5397500    1852.1202   -748.64086    283266.14    15.280496 
 5398000    1972.6261   -741.53113    296435.28    15.236881 
 5398500    2303.5873   -753.12072    301317.06     15.19189 
 5399000     2233.337   -740.93351    315118.69    15.182271 
 5399500    2201.1309   -746.64602    297897.08    15.225381 
 5400000    2034.1081   -741.40811    303232.79    15.210648 
 5400500    2005.1215     -740.953    309645.66     15.17869 
 5401000    1983.0649   -710.78444    310038.44    15.213608 
 5401500    2103.9383   -716.62753    302875.87    15.249102 
 5402000    2016.5366   -715.10377    305190.57    15.225105 
 5402500    1978.8813   -707.79871    316282.14    15.229963 
 5403000    2088.4374   -713.71602    312342.64    15.202681 
 5403500    2040.8895   -715.87541    302318.55    15.245966 
 5404000    1929.8283   -721.44164    300010.04    15.248454 
 5404500    1886.4312   -719.06908    283257.97     15.30058 
 5405000     2051.499   -727.47932    278914.26    15.311129 
 5405500    1741.9588   -711.31131    302085.76    15.246407 
 5406000    1931.2214   -716.32994    291873.74    15.282113 
 5406500    2000.1105   -719.85137       291175     15.29038 
 5407000      2032.95   -710.60392    293044.77    15.190141 
 5407500    1976.9213   -719.31503    289473.62     15.24091 
 5408000    1904.4994   -727.62364     288137.3    15.254341 
 5408500    2127.0206   -711.81231    296887.09    15.199937 
 5409000    2112.9289   -699.13771    333364.65    15.120229 
 5409500    1930.4748   -707.69744    315389.08    15.182947 
 5410000    2054.3968   -703.71965    315834.95    15.163608 
 5410500    2088.5099   -705.88118    312817.62    15.233302 
 5411000    1915.8687   -711.20315    284835.14    15.228541 
 5411500    1887.0812   -719.92778    281989.21    15.325089 
 5412000    2008.3788   -717.70512    300361.55    15.216667 
 5412500    2054.8243   -707.38268    315305.77    15.182313 
 5413000    2173.4565   -706.19024     323693.9    15.197143 
 5413500    1963.7283   -721.57827     301658.6    15.271762 
 5414000    1955.6415    -720.5137    293672.11    15.292662 
 5414500    2007.4432    -722.8351       294229    15.305058 
 5415000    2062.1138   -727.80548    279291.79    15.343389 
 5415500    1783.3949   -726.07524    290807.97    15.293994 
 5416000    2116.9875   -715.34932    301746.94    15.266997 
 5416500    1841.7655   -709.22532    297641.84    15.266676 
 5417000    1954.4522   -703.45754    319845.69    15.186315 
 5417500    1991.2017   -700.05242    309340.28    15.245048 
 5418000    1936.1185   -702.79214     312519.1     15.24537 
 5418500    2185.8596   -696.78868    331283.47    15.182307 
 5419000    2046.8357   -703.50538    314875.41    15.258007 
 5419500    1876.9846   -706.22806    302790.93    15.277258 
 5420000    1967.8662   -709.55528    294270.37    15.317389 
 5420500     1911.198   -708.22369    291158.66     15.33132 
 5421000    2193.1192   -711.53198    288838.66    15.358783 
 5421500    1955.4956   -712.69589     299920.8    15.300483 
 5422000    2020.2096   -704.17364    303316.87    15.299194 
 5422500    1871.4921   -706.19386    295075.04    15.313418 
 5423000    1941.5654   -711.43018     300646.5    15.260143 
 5423500    1994.4123   -709.07005    305960.84    15.239564 
 5424000    1950.5428   -711.42867    299601.56    15.281939 
 5424500    2213.4112    -717.5372    289323.92    15.334457 
 5425000    1845.1039   -709.83322    296973.95    15.300654 
 5425500    2070.5142     -706.639    303113.51    15.307229 
 5426000     1849.609   -705.07517    303971.31    15.284056 
 5426500    2058.6191   -711.68424    306990.12    15.267268 
 5427000    1960.4546   -712.43164    296628.33    15.294196 
 5427500    1921.5381   -712.62889    306119.45    15.265138 
 5428000      1985.08   -698.05746     316199.2     15.24263 
 5428500    2023.5362   -702.70644    295328.14    15.263175 
 5429000     2001.097   -703.71514    310089.43    15.266919 
 5429500    2009.7198   -692.87667    322304.67    15.213603 
 5430000    1972.4421   -699.29063    312837.18    15.244602 
 5430500    2062.3278   -699.70347    295035.27      15.3117 
 5431000    2066.3631   -708.72211    302684.12    15.290654 
 5431500    1988.3541   -702.83141    303305.79    15.290313 
 5432000    1864.5656   -708.70151    291059.23    15.314762 
 5432500    2025.1652   -714.87942    289726.06    15.356661 
 5433000    1848.2396   -705.00236    293424.06    15.307128 
 5433500    1932.6918   -710.23954    292859.87    15.326629 
 5434000    2001.0848   -716.96663    283170.29    15.367996 
 5434500    1914.8673   -715.51849    285262.63     15.35366 
 5435000    2156.2157   -722.58667    273008.87    15.445816 
 5435500    2024.4487   -715.05068    284607.39    15.359412 
 5436000     2043.416   -701.18277    302216.65    15.295666 
 5436500    2015.2061   -703.46172    313572.55     15.26524 
 5437000    2220.0004   -705.06517    309114.32    15.261213 
 5437500    1821.7688   -702.63918    314836.87    15.234698 
 5438000    1880.6092   -708.43403    317339.96    15.220337 
 5438500     1894.991   -697.38257    314836.54    15.252124 
 5439000    1994.6449   -698.78804    321718.25    15.208623 
 5439500    2026.8455   -698.15724    313661.25    15.223507 
 5440000     1960.114   -710.49951    303250.59    15.253549 
 5440500    1874.2563   -718.58297    285440.71    15.309397 
 5441000    2035.5046   -719.49807    281325.54     15.36432 
 5441500    1871.5011   -707.73512    280848.31    15.365441 
 5442000    1917.3756   -710.91602    289410.61     15.32182 
 5442500    2052.8984    -705.1439    305883.78    15.279912 
 5443000    1947.9383   -707.84737    289563.12    15.333706 
 5443500     1997.135    -719.1825    285492.82    15.350482 
 5444000    1866.6768   -722.19301    272903.73    15.384583 
 5444500    1971.5043   -713.92405    289280.33     15.36191 
 5445000    2127.6013   -714.82944    281583.72    15.382409 
 5445500    2237.4646    -719.0081    295787.83    15.305625 
 5446000    1961.7208   -711.54852    301893.13    15.279532 
 5446500    2078.1335   -713.13016    299086.77    15.301675 
 5447000    2046.7639   -714.91513    293115.94    15.306519 
 5447500    1932.2226   -706.70004    299147.99    15.305479 
 5448000    1979.8106   -713.23893    290836.78    15.333126 
 5448500    1921.5527   -706.48948    301387.08    15.301408 
 5449000    2107.1723    -702.9637    309677.57    15.232889 
 5449500    2074.1467   -708.91808    307885.45     15.25624 
 5450000    2142.4795   -710.92256    306346.67    15.261342 
 5450500    1840.4118   -699.22374    304793.24    15.301219 
 5451000    1907.0653   -707.98874    306353.74    15.247127 
 5451500    2105.8474   -703.79666    309500.96    15.269351 
 5452000    1900.8193   -707.77749    298497.52    15.276859 
 5452500    2110.5501   -713.26079    299697.44    15.309443 
 5453000     2057.047   -711.11864    294147.48    15.312942 
 5453500    1829.6605   -711.82508    298882.24    15.305164 
 5454000    2104.6834   -710.88488    291511.19     15.33235 
 5454500    1972.0288   -707.88005    296125.79    15.314407 
 5455000    2055.1035   -703.99218    304684.49    15.296903 
 5455500    2122.1584   -706.48395    305457.53    15.276398 
 5456000    1956.5045   -711.82021    300027.88    15.315538 
 5456500    2072.2803   -703.97513     311923.2    15.250106 
 5457000    2050.6269   -701.59344    316946.26    15.160619 
 5457500    1912.8158   -709.48623    311059.18    15.242673 
 5458000    1985.8548   -713.65801    298715.06    15.275008 
 5458500    2080.9171   -713.75315     293572.6    15.328765 
 5459000    2063.9244   -703.72368    301987.49    15.269318 
 5459500    2052.7865   -698.08136    323088.32    15.235121 
 5460000    1888.8063   -708.40324    294713.25    15.286063 
 5460500    2009.4629   -704.44599     288540.3    15.313902 
 5461000    1956.3235   -716.68005     276099.8    15.382265 
 5461500    1839.6342   -704.57692    291648.31    15.341897 
 5462000    2138.7271   -707.09133    300719.03    15.262536 
 5462500    1983.7152   -701.47874    320985.28    15.218475 
 5463000     2052.359   -699.50944    320216.49    15.194641 
 5463500    2050.7056   -706.02528    307229.02    15.263679 
 5464000    2015.8178   -710.59842    300924.81    15.270876 
 5464500    2234.2809   -704.30838    313505.15    15.255801 
 5465000     1937.344   -694.06561    322528.04    15.200116 
 5465500    2192.2615   -707.88303    299744.56    15.286689 
 5466000    1995.1217   -701.53678    315259.53    15.270058 
 5466500    2059.4411   -702.39842    300928.01    15.307429 
 5467000    1852.6282   -704.27427    306622.59    15.281232 
 5467500     1840.523   -707.96972    292413.21    15.311264 
 5468000    2062.0883    -723.2624     281430.4    15.352707 
 5468500    1945.8617   -717.90659    276501.49    15.370549 
 5469000    1946.4608   -719.17482    284732.41    15.356753 
 5469500    1777.3293   -719.37318     281746.3    15.321696 
 5470000    1958.9807   -716.68436    291793.31    15.295001 
 5470500    2089.8469   -706.37852    294497.21    15.302262 
 5471000    1953.9918   -713.48029    295833.99    15.317264 
 5471500    1724.9418   -706.03091    299209.53    15.307681 
 5472000     2015.482   -716.27184    278249.73    15.376468 
 5472500    1999.4097    -716.2881    284471.51    15.372637 
 5473000    1930.1878   -704.29075    301924.39    15.304718 
 5473500    2055.6747   -707.10541    305804.35    15.253105 
 5474000    1993.5652   -704.37964    316436.37    15.222361 
 5474500    1975.2663   -706.24301    311729.85    15.218062 
 5475000    2189.5175   -701.73704    317327.61    15.242132 
 5475500    2025.5727   -704.22757    319708.75    15.194034 
 5476000    2020.1036   -710.66858    312409.76    15.237638 
 5476500    1946.9506   -713.66113    298068.13    15.319802 
 5477000    1999.4533   -706.62651    309987.96    15.247854 
 5477500    2116.7624   -706.45935    305186.42    15.274114 
 5478000    2071.7432   -715.78195    287920.73     15.33625 
 5478500    1863.2419    -715.4994    290816.07    15.305324 
 5479000     2082.165   -714.60744     293175.6    15.275612 
 5479500     2057.045    -711.7429     284723.8    15.342178 
 5480000    1918.4209   -713.78486    282743.56    15.341983 
 5480500    1963.6324   -714.86547    288248.08    15.333746 
 5481000    1926.3321   -714.87782    288691.72    15.320321 
 5481500    2073.7057    -715.5783    292970.43    15.295929 
 5482000    2088.2082   -715.75888    293273.65    15.288185 
 5482500    1862.8451   -709.53292    309218.34    15.212867 
 5483000    2110.5348   -704.82548    305444.37    15.270515 
 5483500    2067.8971   -706.16608    317449.67    15.207548 
 5484000    2056.2686   -695.09364    321637.43    15.200438 
 5484500    1869.8353   -706.07827    308234.05    15.239194 
 5485000    1937.2185   -708.84636    297474.22    15.277355 
 5485500      1973.92   -712.98653    293199.52    15.278811 
 5486000    1970.6776   -718.34557    283875.32    15.322871 
 5486500    2028.7363   -715.95589     289511.9    15.318059 
 5487000    1955.3916   -713.36676    302050.05    15.266731 
 5487500    2000.6281   -704.07001    315626.24    15.219125 
 5488000    2150.8644   -704.36785    316352.03    15.223987 
 5488500    1942.0735   -705.33839    300379.51    15.306813 
 5489000    1967.4721   -706.49763    300448.43    15.266644 
 5489500    2035.1336   -711.83156    302816.09    15.215971 
 5490000    1953.9248   -709.78161    304788.81    15.193007 
 5490500    2006.7604   -710.60893    279884.39    15.224022 
 5491000    1810.8149    -720.5065    298507.13    15.278691 
 5491500    2008.4498   -716.52661    288853.52     15.30404 
 5492000    1943.9659   -713.90612     295275.2    15.278421 
 5492500    2049.3468   -708.11401    314581.72    15.204059 
 5493000    2050.6037   -711.23965    311143.67    15.213986 
 5493500     2167.307   -720.06383    299771.46    15.279986 
 5494000    1872.3835   -720.05776    296035.42    15.269704 
 5494500    2096.0479   -728.50042    295344.54     15.27847 
 5495000    2039.7147   -724.89907    296937.17    15.279445 
 5495500    1986.9093   -723.04897     302446.7    15.259623 
 5496000    2021.1587   -725.93473    301352.44    15.239212 
 5496500    1950.1264   -728.18976    308459.86    15.226158 
 5497000     1964.144   -732.10361    291973.18    15.274461 
 5497500    1831.2241    -738.1887     282809.6    15.319078 
 5498000       2047.9   -729.22821     285211.3    15.338054 
 5498500    1925.9806   -729.52689    283504.33    15.328353 
 5499000    2169.2742   -731.92192    302669.84    15.257275 
 5499500      1952.59    -730.8836    296808.63    15.262581 
 5500000    2057.6232     -724.858    301382.56    15.279273 
 5500500    1946.8735   -744.75643    288855.93    15.261672 
 5501000    1891.8008   -752.70769    279865.16    15.290384 
 5501500    2128.9548   -753.21954    288077.65     15.24433 
 5502000    1910.2746   -738.35106    306817.43    15.204626 
 5502500    2066.6753   -729.57445    307024.76    15.243917 
 5503000    1913.3611   -745.07821    300844.46    15.226625 
 5503500    1804.4954   -726.06437    293376.29    15.296721 
 5504000    1873.3298   -741.52704    282804.38    15.324862 
 5504500     1874.484   -747.05499    287219.97    15.265315 
 5505000    2019.4178   -750.68219    306196.46    15.171045 
 5505500    1927.1774   -740.13471    301569.16    15.216612 
 5506000    1915.8682   -729.68035    307389.28    15.233088 
 5506500    2010.0397   -747.27619    289833.91    15.271786 
 5507000    1983.2126   -747.28412    281345.61    15.283082 
 5507500    1969.4818   -744.74423    286810.02    15.283841 
 5508000    1884.4403   -741.09591    309287.83    15.186637 
 5508500    1914.1253   -748.70641    303856.25     15.17754 
 5509000    1918.0299   -735.99943    302071.73     15.24113 
 5509500    1895.1391   -738.40741    292393.35    15.273473 
 5510000    1903.4027   -735.27976    308118.58    15.207764 
 5510500    2078.8326   -735.31215    319006.26    15.159665 
 5511000    1918.0643   -738.65686    309077.93    15.182311 
 5511500    1996.1779   -740.28724    299395.08    15.236923 
 5512000    2034.3265   -745.65555    298255.59    15.222949 
 5512500    1989.8001   -749.57314    297684.19    15.226192 
 5513000    2125.9399   -750.42562    291421.37    15.257013 
 5513500    2098.4404    -739.6591    313525.77    15.186319 
 5514000     1902.079    -734.5519    316824.99    15.172529 
 5514500    1998.5789   -734.22756    299655.86    15.236117 
 5515000    2058.9902   -717.76157    295130.55    15.279867 
 5515500    1923.9806   -710.20567    301904.27    15.273697 
 5516000    1784.0362   -721.67182    290981.91    15.283313 
 5516500    1843.3907     -721.977    282966.49    15.328645 
 5517000    2175.7302   -722.85608    279995.51    15.332017 
 5517500    1951.6313   -707.85071    298845.17    15.276474 
 5518000    2071.7387   -717.33007    290476.08     15.26599 
 5518500    2032.6997   -709.80366    308900.12    15.224758 
 5519000     1963.643   -713.48158    298568.45     15.22887 
 5519500    1904.8702   -710.20655    306152.55    15.234702 
 5520000     2022.152   -706.84686    310086.36     15.25091 
 5520500    2097.1197   -710.91426     310141.7    15.224141 
 5521000    2055.3882   -713.23757    292699.87    15.311284 
 5521500    2133.5481   -726.05898    287358.49    15.317938 
 5522000    1946.5137    -722.9312     306557.3    15.228548 
 5522500    1851.5097    -723.7346    299002.12     15.28076 
 5523000     1927.637   -726.51057    298090.08    15.286297 
 5523500    1942.1846   -724.95211    296378.68    15.277276 
 5524000    1957.9763   -710.64532     304686.5    15.251117 
 5524500    2030.9398   -721.48843     300250.9    15.240235 
 5525000     1997.093   -724.88665     296363.6    15.244291 
 5525500    1875.9639   -719.68837    305060.36    15.246692 
 5526000    2016.1729   -719.82119    308424.21    15.217325 
 5526500    2000.8915   -711.92062    308437.34    15.245004 
 5527000    2018.6057   -711.20075    309196.24    15.221039 
 5527500     2053.603   -721.66679    294269.91    15.275394 
 5528000    1837.9913   -725.13292    275987.02    15.357224 
 5528500    2029.5148   -718.09225    300034.14    15.295933 
 5529000    1991.8195     -723.824     295180.4    15.297934 
 5529500    2086.4126   -715.23332    296601.54     15.26609 
 5530000    1894.5421   -721.98026    283859.51    15.240827 
 5530500    1898.2703   -709.64553    302044.64    15.257387 
 5531000    1926.1607   -717.37897    286500.62    15.328869 
 5531500    1936.3505   -712.25418    293812.92    15.305736 
 5532000    2063.3793    -721.5478     289111.8    15.310322 
 5532500    1878.5561   -711.67284    302102.49    15.243781 
 5533000    2039.6971    -701.5533    315625.22    15.251234 
 5533500     1831.644   -703.44755    320531.77    15.185831 
 5534000    2063.0369   -702.97368    321682.98    15.177599 
 5534500    1853.2818   -701.95854    307459.09     15.27538 
 5535000     2035.748    -713.2642    298844.07    15.267876 
 5535500    2189.3101   -715.82549    291881.25    15.321811 
 5536000    2020.8136   -716.68612    296208.34    15.325128 
 5536500    2028.5199   -723.23694    297714.58    15.285398 
 5537000    2153.7034   -738.88186    301124.42     15.25076 
 5537500    2165.6287   -730.56876    307736.36    15.228091 
 5538000    1891.9874   -722.93948    303245.02    15.261207 
 5538500    2005.2296   -744.65581    288359.39    15.270856 
 5539000    2001.7049   -736.95342    286416.56     15.28814 
 5539500    2065.6016   -749.83902    286809.21    15.274308 
 5540000    1992.5958   -746.03672    286313.08    15.270552 
 5540500    2004.5707   -731.15504    303126.34    15.236049 
 5541000    2066.4861   -738.01532    307548.52     15.20024 
 5541500    1975.5907   -741.26968    302269.63    15.200467 
 5542000    2048.2321   -753.20639    283773.72    15.259356 
 5542500    2019.6175   -736.27806    298899.21    15.264761 
 5543000    1869.0447   -716.59876    301249.62    15.276539 
 5543500    2147.8784    -735.4909    292432.87    15.271864 
 5544000    2060.3431   -733.61691    319773.43     15.17457 
 5544500    2005.5106   -726.91508    309665.02    15.205667 
 5545000    2084.1002   -714.31428    300359.79    15.263752 
 5545500    1966.0317     -724.998    296987.98    15.293931 
 5546000    1855.1007    -729.0235    291638.82    15.277913 
 5546500    2008.6698   -734.30855    279909.85    15.333274 
 5547000    1710.7535    -740.3909    281090.09    15.303467 
 5547500     1972.166   -735.50546    282419.89    15.322738 
 5548000       2006.6   -741.58475    297392.32    15.237841 
 5548500    2012.2908   -744.41716    293360.93    15.250966 
 5549000    1870.1466    -748.1728    304991.46    15.167648 
 5549500    2093.3957         -731    322187.98     15.16895 
 5550000    2184.5038    -726.5083    302055.61    15.259445 
 5550500    1865.5104   -725.05327    298998.67     15.25266 
 5551000    2001.6808   -735.46714    300105.07    15.262475 
 5551500    2033.4658   -730.25346    298083.61    15.257233 
 5552000    2051.5097   -718.49535    306792.66    15.243581 
 5552500    1850.3187   -727.72664    322885.78    15.144882 
 5553000    1918.7674   -708.30012    315747.84    15.211532 
 5553500    1990.3968   -719.22066    301176.25    15.269096 
 5554000    2036.5884   -718.30739    299983.84    15.270819 
 5554500    2142.8643   -727.44774    313595.12    15.212989 
 5555000    1978.0928   -736.10953    312325.34    15.196953 
 5555500    2023.3193   -740.87386    288604.74     15.28079 
 5556000    2019.2409   -735.86327    292967.21    15.283511 
 5556500    1911.8338   -733.57066    286944.22    15.304836 
 5557000    1960.7776   -737.91925    282697.28    15.315902 
 5557500    1882.1133   -739.85174    285228.71    15.309852 
 5558000    1864.2691   -734.60089    293671.12    15.276991 
 5558500      1942.53   -729.89138    310079.78    15.217964 
 5559000    2007.2532   -723.38956    321189.97    15.173758 
 5559500    2141.1352    -724.5147    309017.22    15.238286 
 5560000    2010.3687    -711.1619    309901.29    15.246323 
 5560500    2017.6884   -721.53698    305053.42     15.22666 
 5561000    1913.4091   -721.12926    294806.96    15.280531 
 5561500    2135.9618   -729.19251    292565.65    15.287359 
 5562000    2164.2767   -736.56516    305647.61    15.234175 
 5562500    1766.1862   -718.38961    311536.99    15.200775 
 5563000    2143.5579   -729.65535    308705.13    15.217931 
 5563500    2276.8951   -752.91527    291734.37    15.247291 
 5564000    2019.2329   -743.03115    303162.17    15.226089 
 5564500    1958.4135   -726.77833    297367.74    15.280933 
 5565000    2090.0726   -736.71679    289325.03    15.317512 
 5565500    2081.5378   -738.72301    284734.98    15.325724 
 5566000    1903.3684   -729.14236     287357.7    15.298153 
 5566500    1976.4512   -737.18982    277525.93    15.317572 
 5567000    2155.1079   -737.10038    296882.23    15.269587 
 5567500    1970.2695   -725.18802    321845.88    15.171803 
 5568000    2114.3368   -722.60998    304597.93    15.255164 
 5568500    2280.3698   -748.91229     299278.1    15.217985 
 5569000    1822.5014    -751.2347    298061.13    15.202232 
 5569500    2262.8082   -740.83239     305203.3    15.222793 
 5570000    2098.1857   -747.80303    308002.03    15.166213 
 5570500    1948.0874   -748.49113    302338.57    15.206163 
 5571000    2090.7679   -752.19635    298650.86     15.20046 
 5571500    1943.8525   -736.85681    283985.58    15.297965 
 5572000     2075.726   -732.28361    286119.31     15.29333 
 5572500    2070.6422   -728.24865    295759.42    15.273315 
 5573000    2061.3687   -732.05442    298532.55    15.276478 
 5573500    1782.7697   -743.37369    307158.05    15.179283 
 5574000    2256.6939    -752.0455    301329.28    15.193908 
 5574500    2050.9691   -743.71088    299907.26    15.231592 
 5575000    1838.7506   -742.97213    277156.48    15.310936 
 5575500    1954.2646   -742.28207    286902.81    15.278427 
 5576000    2210.9751   -741.06957       305536    15.221902 
 5576500    1940.1436   -740.39259    297803.71    15.234385 
 5577000    2041.4836   -749.48659    298295.75    15.194774 
 5577500    2051.8313   -736.00197    323242.51    15.144275 
 5578000    2056.3069   -751.44765    301459.07     15.19539 
 5578500    2057.6434   -748.85548    288147.55    15.257979 
 5579000    1883.9106   -748.65632    297029.75    15.220306 
 5579500    2016.8412   -739.03749    298781.04    15.240698 
 5580000    2078.9881   -734.55681    314914.61    15.195835 
 5580500    1927.3468   -743.17511     295074.1    15.235657 
 5581000    2073.1559   -742.86447    283912.71    15.304033 
 5581500    2134.0264   -743.09342    285938.95    15.298675 
 5582000    1979.1607   -738.57223    298900.75    15.246801 
 5582500    2063.7461   -738.10882    321115.83    15.149864 
 5583000    1801.0121   -724.36388    314503.87    15.202606 
 5583500    2065.5646   -724.21165    304955.96    15.242448 
 5584000    1757.3223   -727.76734    299039.95    15.270695 
 5584500    2119.4679   -741.82776    290864.89     15.27269 
 5585000     1858.715   -750.91076    278668.66    15.314546 
 5585500    2022.2941   -747.08622    298449.14    15.214468 
 5586000    2118.0533   -740.83216    310182.23    15.195629 
 5586500    2062.2103   -730.53567    305065.02     15.23916 
 5587000    2086.2716   -722.61777     302300.2    15.252963 
 5587500    2093.0835   -731.18803    297695.48     15.27982 
 5588000     2125.702   -726.22865    310971.16     15.22446 
 5588500    1963.5972   -718.96226    305060.45    15.242442 
 5589000    1876.6046   -723.22927    295553.82    15.268944 
 5589500    1917.2016   -711.49051    302505.06     15.28246 
 5590000    2095.0848   -718.01428    296990.94    15.278875 
 5590500    1928.9263   -706.65757    306106.07    15.229162 
 5591000    2225.2716   -706.39589    316833.09    15.190944 
 5591500    2029.6688   -701.30466    305898.85    15.258624 
 5592000     2020.233   -714.21295     292797.1    15.279166 
 5592500    1968.1185   -718.31985    306791.62    15.250726 
 5593000    2067.8583   -715.68533    289500.33    15.334094 
 5593500    2096.0596   -713.36904    288552.94    15.317716 
 5594000    1871.8317   -724.56283    283461.54    15.320884 
 5594500    1900.2883   -738.23823    270218.13    15.354528 
 5595000    1911.4783   -734.77762    286656.52    15.307681 
 5595500    2111.7998   -722.95059    300864.53    15.288278 
 5596000     2144.059    -725.7829    298596.58    15.273529 
 5596500    2134.5403   -709.61476    315273.31    15.233142 
 5597000    1875.6079   -723.84773    309184.23    15.211429 
 5597500    1929.8491   -720.73471    314121.19    15.227194 
 5598000    1963.5388   -716.63918    306254.24    15.234053 
 5598500    1911.2849   -709.30118    309022.54     15.25865 
 5599000    2066.5602   -724.93766    294085.49    15.278996 
 5599500    1969.2394   -712.56037     299818.1     15.27607 
 5600000    1956.0689   -726.11076     300653.8    15.272849 
 5600500    1859.2705   -723.86193    298472.38    15.258952 
 5601000    2147.1475   -722.38109    300466.55    15.272557 
 5601500    1896.2924   -710.61158    303889.19    15.262717 
 5602000    2090.6391   -707.91443    306923.28    15.219219 
 5602500    1950.0602   -708.71959    304329.72    15.237822 
 5603000    1882.5962   -708.61141    319818.66    15.178957 
 5603500    2227.5696   -713.45845    305808.19    15.238963 
 5604000     2044.886   -715.46716    298968.37    15.271308 
 5604500     1974.546   -716.54522     291852.3    15.288678 
 5605000    2138.7773   -715.37328    294573.48    15.302171 
 5605500    1838.5868    -717.7147     284334.9    15.326385 
 5606000    2241.6458    -733.1242    281695.82    15.343715 
 5606500    2050.2261   -716.64586    295413.83    15.277673 
 5607000    2036.0076   -704.92616    318457.76    15.227766 
 5607500    1999.2998    -705.3432    314318.17    15.227457 
 5608000     2089.965    -714.9983    300537.71    15.261896 
 5608500    1829.1732   -713.46994    299171.15    15.252765 
 5609000    1926.5667   -706.37319    299988.89    15.280222 
 5609500    2106.8816   -704.20606    305363.12    15.296231 
 5610000    2057.3423   -706.54642    311773.91    15.233604 
 5610500    1862.9284    -707.2138    307587.55    15.263595 
 5611000    1992.4979   -706.61372    304526.51    15.292946 
 5611500    1900.5535   -707.49471    292917.32    15.275104 
 5612000    1823.5338   -706.15024     296039.6    15.308736 
 5612500    2115.7905   -713.17372    299951.01    15.281541 
 5613000    1871.6045    -701.4739    316735.22    15.229438 
 5613500    1926.2145   -712.62501    304349.53    15.245099 
 5614000    1870.3853   -715.62395    282741.69    15.348664 
 5614500     1991.199   -703.32073    311078.76    15.242848 
 5615000    1974.6606   -700.08141    306997.87    15.287861 
 5615500    1988.6678   -716.71386    299600.73    15.262493 
 5616000    1959.6528    -717.6926    302681.46      15.2576 
 5616500    1890.5409   -715.24423    295879.28    15.329148 
 5617000    1861.6383   -712.49882    305641.41    15.278148 
 5617500     1936.701   -708.49083    304060.85    15.258553 
 5618000    1997.1287   -712.60533    293817.71    15.292731 
 5618500    2009.4877   -718.49425    278837.21    15.353922 
 5619000    2058.2802    -718.4993    291127.88    15.303622 
[...]
24848000    1975.0678     -708.696    308027.04    15.284033 
24848500    2152.0722   -710.14569     307428.9    15.258301 
24849000    2105.4824   -711.21215    310311.02    15.247699 
24849500    1970.0246   -708.32164     296634.3    15.302744 
24850000    2025.9516   -705.68963    321667.93     15.21524 
24850500    1910.7503   -711.48366    306932.08    15.220136 
24851000    1980.1485    -711.1368    298823.93    15.250145 
24851500    1920.7776   -710.52343    296552.56    15.270627 
24852000    1869.8941   -705.72291    305618.64    15.264081 
24852500    2030.7417   -701.56546    305568.98    15.271598 
24853000    1879.8333   -712.83392    308008.65    15.255426 
24853500    1957.2139    -711.1691     318579.9    15.197104 
24854000    1994.3816   -695.99157    327467.73    15.189632 
24854500    2064.2773   -716.95657    307235.92    15.184394 
24855000     1898.829   -715.91696    295542.36    15.251222 
24855500    1861.4563   -709.28161    290825.15    15.282832 
24856000    2094.7097   -708.20912    296855.75    15.282208 
24856500    2005.8007   -715.20752     290939.6    15.266714 
24857000    2056.9504   -719.46422    280976.43    15.360534 
24857500    1862.0274   -719.80862    264007.68    15.403809 
24858000    1895.5847   -711.53251    287838.96    15.314972 
24858500    2022.8822    -708.2922    308126.11     15.26224 
24859000    1942.6524   -707.86798    315396.16    15.218769 
24859500     2030.159   -710.67722    306719.82    15.236402 
24860000    1996.7655   -699.44454    320278.99    15.226123 
24860500    2086.2943   -706.43325    314846.57    15.249584 
24861000    1891.0433   -703.47917    308136.33    15.270394 
24861500    2035.7082   -704.57397     291851.1    15.328435 
24862000    2047.9687   -715.39006    298110.25    15.297383 
24862500     2047.452   -712.05803    294841.34    15.322813 
24863000    1946.8596   -704.24819    305568.03    15.301726 
24863500    1880.9854   -706.16257    299678.22    15.295849 
24864000    2008.8168   -701.90215    296088.63    15.322395 
24864500     1974.389   -703.75014    304211.16    15.302621 
24865000    2169.2567   -701.34282    309282.98    15.254977 
24865500    2303.1544   -694.09291    328596.72    15.198425 
24866000    2006.5916   -700.28023    318971.77    15.245142 
24866500    2019.0285    -704.6441    317295.53    15.246778 
24867000    2006.7641   -707.48017    312943.28    15.246878 
24867500    2063.2928   -707.97848    312289.48    15.226172 
24868000    2050.0611   -710.52052    304987.18    15.251228 
24868500    2111.9129   -715.70593    292005.93    15.315719 
24869000    2159.3608   -718.60658    302461.73    15.255743 
24869500    2051.5958   -724.06771    297310.75    15.258909 
24870000    2042.8443   -725.93138    292789.48    15.280582 
24870500     2073.411   -711.94466    314946.31    15.214592 
24871000    2082.9104   -709.15236    316528.23    15.185126 
24871500    2128.6405   -709.78551    317686.23    15.205635 
24872000    2014.4453   -711.42497     314184.4    15.231893 
24872500    1946.0141   -703.30353    304879.82    15.227521 
24873000    2108.8712   -711.81649    300150.78     15.25741 
24873500    1896.3173   -709.93075    303580.12    15.237287 
24874000    2054.1673   -715.19285    290482.64    15.289515 
24874500    1889.3083   -720.58303    291539.84    15.304478 
24875000    2040.2434   -711.72064    286373.57    15.320154 
24875500    1990.4425   -712.89769     302950.3     15.25761 
24876000    2064.1767   -716.29534    304885.45    15.247758 
24876500    2192.9965   -713.65804    316884.89    15.228833 
24877000    2039.5949   -711.47988    310876.11    15.223223 
24877500    1990.2243   -719.49304    310128.74     15.22295 
24878000    1946.0572   -721.21278    301202.05    15.261374 
24878500    2104.2504   -712.24228    296411.91    15.263254 
24879000    1985.0554     -729.069    283415.72    15.298338 
24879500    2035.6638   -724.12967    289290.41    15.309237 
24880000    1963.8549   -727.80604    294585.88    15.275227 
24880500    1896.0747   -723.50602    304943.16    15.244408 
24881000     1996.526   -728.55508    302440.54    15.252636 
24881500    2131.5276    -720.8478    323071.45    15.206781 
24882000    1900.3213   -722.60432    321034.41     15.17633 
24882500     2017.235   -728.34702    317120.46    15.193607 
24883000    2049.7019   -743.15218    304959.67    15.203505 
24883500    1871.6507   -735.11053    296535.46    15.268605 
24884000    2044.4296   -740.20532    279374.26    15.327921 
24884500    2110.3311   -739.25335    273445.97    15.354602 
24885000    1974.0416   -735.15256    282446.94    15.322028 
24885500    1940.6825   -733.66431    298703.99    15.258642 
24886000    1924.1823   -723.52249    299453.29     15.25295 
24886500    2007.3521   -725.19261    298354.42    15.282256 
24887000    1937.3374   -722.71573    295912.95     15.27004 
24887500    2015.7317   -718.98646    308958.23    15.216547 
24888000    2125.4751   -714.18535    313071.23    15.209795 
24888500    1867.1809   -709.96491    302001.54     15.24191 
24889000    1885.0177   -709.63809    309673.75    15.220533 
24889500    1883.8195   -711.84132    304309.58    15.237939 
24890000     2017.953   -714.30169    281353.24    15.291561 
24890500    2056.1659     -720.985    292773.47    15.251436 
24891000    2128.1764   -713.70604    306706.09    15.245227 
24891500    2023.6737     -716.684    295816.55    15.308861 
24892000    1906.3626   -706.65479    310280.71    15.247456 
24892500    1891.2656   -707.45485     305093.4    15.250845 
24893000    1956.0371   -703.22623    317217.15    15.231525 
24893500    1997.2542   -708.39409    303331.42    15.249784 
24894000    2129.1558   -711.55158     302029.4    15.245777 
24894500     2022.193   -710.66158    298274.39    15.273729 
24895000    1853.2897   -716.33139    285770.88    15.284585 
24895500    1916.1877   -707.92479    294148.36    15.306033 
24896000     1982.858   -714.98364    293843.76    15.313434 
24896500      1997.58   -706.49013    307684.83    15.309447 
24897000    1885.3129   -710.19082    292081.41     15.31372 
24897500    2150.5825   -705.68051    303904.76    15.291027 
24898000    1951.9715   -710.92529    302728.21    15.271428 
24898500     1986.634   -709.90938    304437.15     15.24765 
24899000    2008.6218   -706.08099    298587.72    15.287754 
24899500    2030.0743   -715.51799    291876.57    15.317631 
24900000    1885.8165   -723.98617    278406.36    15.359536 
24900500    2030.1483   -716.99692    282385.55    15.327738 
24901000    2007.2944   -708.65264    288179.03    15.324431 
24901500    2098.3968   -715.77969    289605.53    15.336221 
24902000     1911.185    -712.4127    294150.15    15.313214 
24902500    2142.8339   -704.00491    314363.83    15.242873 
24903000    1965.1754   -694.36239     321189.2     15.21738 
24903500    2023.7166   -697.93201    321311.16    15.222848 
24904000    2163.1669    -705.3137    308563.96     15.25763 
24904500      2098.07   -710.50492    299582.26    15.301755 
24905000    2055.0563   -717.08906    294304.55    15.281563 
24905500    2105.0134   -703.53911    304563.46    15.231927 
24906000    2053.3888    -702.2219    327652.24    15.143074 
24906500    2076.1239   -707.77992    307196.74    15.245667 
24907000     1879.821   -709.98624    308187.02    15.218314 
24907500    1963.4177   -721.47381    287307.71    15.307915 
24908000    1853.7101   -717.07157    276320.49    15.375175 
24908500    2002.8801   -716.70844    279337.87    15.362748 
24909000    1902.4759   -712.53847    295309.96    15.267988 
24909500    2211.1445   -718.98017    299733.67     15.26983 
24910000    1915.8349   -705.85113    320294.97    15.199666 
24910500    2158.9477   -706.24079    309268.22    15.209306 
24911000    1962.5748   -703.46759    305853.84     15.22507 
24911500    2015.7225   -714.23477    305006.51    15.265014 
24912000    1986.8972   -716.60799    291850.87    15.310419 
24912500    1909.8134   -719.98287    285686.08    15.330227 
24913000    2076.7908   -727.43637    274188.07    15.333447 
24913500    2029.8315   -721.68385       272984     15.35592 
24914000    2179.2598   -713.24465    295084.02    15.258022 
24914500    2066.1686   -723.63842    297826.78    15.260507 
24915000    2023.0186   -713.14666    296757.23    15.280951 
24915500    1897.6564    -719.5744    287747.21       15.301 
24916000    1858.9648   -721.50836     288116.9    15.285034 
24916500    2055.0986    -733.6938    297826.34    15.248052 
24917000    2009.1001   -718.12459    315030.82     15.21045 
24917500    1968.3906   -719.20288    307530.12    15.239047 
24918000    2081.5187   -713.42484    310651.17    15.209186 
24918500    2052.0832   -704.40619    332257.85    15.135469 
24919000    2063.3609   -709.85562    319541.19    15.168049 
24919500    2093.8187   -712.62263    311068.41    15.239387 
24920000    2014.7373   -727.37163    296233.99    15.277694 
24920500    1968.3281   -719.30296    301446.74    15.263059 
24921000     1828.685   -712.71254    310445.47    15.231286 
24921500    1907.1783   -727.39933    292130.39    15.303694 
24922000    1912.8671   -733.30877     288769.8    15.307679 
24922500    1982.9408   -733.56719    292876.22    15.291611 
24923000    1961.7967   -715.28399    298152.78    15.289323 
24923500    2043.8207    -717.9281    308055.25    15.213967 
24924000    2108.7962    -726.6577    303834.79    15.250737 
24924500    1854.0496   -731.71989    296672.02    15.248872 
24925000    2147.7525   -723.28628    298293.79    15.268608 
24925500    2116.8798   -737.31908    292536.88    15.291666 
24926000    2028.0719   -716.65518    301768.03    15.275387 
24926500    1956.8176   -726.11456    300137.88    15.255159 
24927000    1943.4503   -718.08258    301036.36    15.263327 
24927500    2198.2714   -713.48601    305644.08     15.23103 
24928000    2095.4049     -711.245    340604.68    15.136327 
24928500    2018.1214   -716.71592     305802.9    15.230502 
24929000    1972.3709   -719.98784    299125.65    15.245079 
24929500     2134.634   -719.87029    284446.75    15.316366 
24930000    1943.7991    -725.1796     293348.8    15.285785 
24930500    1868.3699   -712.68026    308073.12    15.242814 
24931000    1941.0622   -713.87314    309740.83    15.205683 
24931500    1803.4089   -711.41659    310045.02    15.240343 
24932000    1906.7707   -725.09966    286337.19    15.302571 
24932500    2139.4044   -725.64955    279485.46    15.321232 
24933000    1917.5538   -730.30985    272645.15    15.369863 
24933500    2019.8428   -727.94831    279210.31    15.340645 
24934000    2025.4149    -719.2988    292136.65    15.324541 
24934500    1874.1941   -715.21475    308039.31    15.228327 
24935000    1906.9908   -721.07328    298380.67    15.265939 
24935500    1963.1138   -723.84324     298552.7    15.264978 
24936000    1970.6599   -717.26875    299027.87    15.256042 
24936500     2035.947   -710.12922    311677.23    15.237465 
24937000    2007.4348   -716.05622    310809.62    15.237797 
24937500    2191.4143   -718.46774    305605.65    15.258376 
24938000      1969.22   -726.30888    307834.45    15.237087 
24938500    2006.7619   -749.85301    287688.35    15.256588 
24939000    2012.5923    -737.6593    296164.66    15.256866 
24939500    1851.5661   -731.23365    312475.92    15.184861 
24940000    2041.2084   -750.43492    317113.93     15.13359 
24940500    2157.4784   -751.80899    293733.98    15.241845 
24941000    2002.3094    -755.3356    278416.58    15.282807 
24941500    1953.3041   -753.07026    294362.76    15.218307 
24942000    2042.3583   -735.40536    308999.55    15.210835 
24942500    1987.1735    -723.7456    303986.66    15.211962 
24943000    2049.1477   -719.70273    310913.81    15.232323 
24943500    2105.2526   -711.19752     314698.1    15.218947 
24944000    2080.3339   -721.23793    295869.05    15.299022 
24944500    2008.8921   -716.83368    293551.51    15.299411 
24945000    1885.0011   -723.20294    283675.47    15.314207 
24945500    2122.4212   -727.33695    300458.79    15.280781 
24946000    1876.0005   -729.05844    303065.71    15.258094 
24946500    2080.6755    -744.8794    299754.73     15.21494 
24947000    2187.8791   -728.29486    304628.91    15.261322 
24947500    2081.3098   -724.30025    318612.74    15.210841 
24948000    2075.4499   -730.24421    318414.87    15.191097 
24948500    2251.2579   -733.22099    298509.69    15.262095 
24949000    2118.3074   -736.96918    305949.66    15.241216 
24949500    2019.0627   -734.35605    300718.74    15.239461 
24950000    1970.2351   -735.13773    292051.54    15.284714 
24950500    2227.6487   -740.59363    292852.51    15.293051 
24951000     1781.707    -728.3907    306609.22    15.213156 
24951500     2053.626   -737.00438    328418.32    15.140232 
24952000     2095.848   -749.91068       309601    15.173128 
24952500    1880.0457   -728.02881    292706.72    15.272308 
24953000    2090.9569   -743.89841    302524.09    15.240443 
24953500    2085.4742   -726.78695    300016.06    15.263238 
24954000    1952.6013    -727.0952     298126.1    15.237723 
24954500    1952.1442   -740.85863    286274.02    15.283061 
24955000    2009.4517   -738.85884    285582.42    15.283659 
24955500    1913.5026   -727.32084    305599.45    15.240883 
24956000    2040.8139   -732.38799    310249.89    15.211977 
24956500     1944.331   -733.07212    310623.78     15.20641 
24957000     2179.631   -731.69961    310915.77    15.233358 
24957500     2077.806   -735.94792     311278.6    15.202895 
24958000    1918.2121   -746.58002     290826.9     15.25271 
24958500    1865.0285    -757.0735    273747.82    15.292058 
24959000    1894.5564    -736.3695    297696.38    15.261679 
24959500    2144.3477   -745.09543    289153.01    15.274047 
24960000    2029.4352   -723.36124    301001.61    15.281189 
24960500     1907.997   -724.05805    292783.92    15.289745 
24961000    1983.7156   -727.63479    288576.38    15.316661 
24961500    1914.0685   -733.00803    287054.54    15.303476 
24962000    1915.4123   -744.61377    289336.33    15.273982 
24962500    2052.7956   -748.84897    287528.04    15.262844 
24963000    1963.6579    -741.0387    310930.06    15.193568 
24963500    1986.2445   -746.07723    305722.52    15.182796 
24964000    1966.7524    -721.6339    302871.85    15.238692 
24964500    1765.9402   -720.37276    304967.91    15.246271 
24965000    2045.2105   -742.53968    293886.31    15.264041 
24965500    2183.5733   -748.50864    294460.67     15.23289 
24966000    1927.5097   -742.10235     304340.1     15.20056 
24966500    1915.8241    -732.5838    306617.52     15.21071 
24967000     2029.953   -723.18677    310227.41    15.210156 
24967500    1898.0659    -713.2553     307145.4    15.247352 
24968000    1839.4713   -716.16124    300197.46    15.290159 
24968500    2142.6822   -720.04415     292169.2    15.300473 
24969000    2060.2403   -728.26588    292633.01    15.304547 
24969500    2026.1804   -735.59452    295413.97    15.261267 
24970000    2003.5696   -743.51039     281280.9    15.307749 
24970500     2107.353   -744.32715       292001     15.27846 
24971000     2042.968   -742.62118    307573.84    15.194168 
24971500    1889.6468   -748.47721     305630.5     15.17899 
24972000     1949.104   -727.20615    298699.31    15.271654 
24972500    1988.0358   -743.49589     295444.8    15.246156 
24973000    2117.5771   -744.69064    283731.12    15.305122 
24973500    1957.4267   -748.70603    283605.47    15.295609 
24974000    1962.6456   -733.79231    285471.82    15.310671 
24974500    1920.1279   -739.44722    290688.87    15.272632 
24975000    1943.6535   -730.97237    295235.89     15.27732 
24975500    2066.5377   -731.52372    308253.32    15.247333 
24976000    2105.0696   -732.75482    305717.51    15.241733 
24976500    1926.7599   -716.62485    297189.53    15.278952 
24977000    1972.8572   -713.92465    291174.92    15.307853 
24977500    2058.9694   -712.44181    304467.12    15.276018 
24978000    1827.0118   -715.00562     306758.1    15.224986 
24978500    2008.3148   -734.99329    296980.76    15.259494 
24979000    1950.5868    -735.7515       282088    15.323684 
24979500    1985.3616   -746.66181    292349.61     15.26574 
24980000     1906.306    -750.1011    288731.81    15.262746 
24980500     2145.054    -730.0802    308524.45    15.231062 
24981000    2037.7198    -725.3071    307714.95    15.236646 
24981500    2233.9774   -728.96088    307872.21    15.247416 
24982000    1950.5271   -722.53157    311681.93    15.212129 
24982500    2058.1574   -713.90663     315594.1    15.217324 
24983000    2014.3186    -728.1975    311910.16    15.207612 
24983500    2147.6324   -740.72785    293941.95    15.273948 
24984000     1992.907   -740.11728    275245.44    15.358789 
24984500    1983.8036   -731.68488     272504.5    15.383096 
24985000    2282.2519   -728.14043    293547.39    15.286757 
24985500    2145.7471   -735.49333    295405.62    15.269393 
24986000    2090.5388   -723.29576    304194.72    15.262967 
24986500    2034.8021    -704.1741    331768.15    15.172753 
24987000     2043.323    -707.6547    314167.71    15.211563 
24987500    1916.8715   -715.44469    300844.43    15.236131 
24988000    2040.1662   -718.96751    304015.28    15.225898 
24988500    2149.4043   -713.49454    303687.47    15.255634 
24989000    1907.9581   -702.85861    317367.71    15.199619 
24989500    2124.7112   -704.03373    319299.29    15.177466 
24990000    1896.0722   -708.94384    311752.22    15.247611 
24990500    2208.7033   -709.77073    301672.83    15.249109 
24991000    1821.2204   -714.81816     303658.4    15.270513 
24991500    1921.4861   -715.53481    300146.77    15.259248 
24992000    1995.8833    -710.7667    296783.04    15.301296 
24992500    1845.2456   -716.80117    289352.23     15.31499 
24993000    1975.7732   -730.02231     278717.5    15.336054 
24993500    2014.8895   -727.98538     277090.1     15.32512 
24994000    2152.4641   -722.56039    298219.41     15.30708 
24994500    2103.7038   -727.78837    296391.12    15.286977 
24995000    1908.4096    -731.6616    289463.57    15.290907 
24995500    1929.4553    -725.9538    296293.93    15.273194 
24996000    2181.5554   -728.61705    296516.09    15.262353 
24996500    2042.3409   -727.82785    298383.29    15.264668 
24997000     1947.845    -724.8946    293138.88    15.282949 
24997500    2011.1728   -730.74411    297794.79    15.271748 
24998000    2050.9056    -731.7848    308553.04    15.239283 
24998500    2075.5708   -747.59871    296531.97    15.226207 
24999000    2151.1909   -741.73594    311486.33    15.185506 
24999500    1962.0327   -726.92185    305772.96    15.251955 
25000000    1983.6075    -747.1806    288701.77    15.264589 
Loop time of 81435.2 on 6 procs for 20000500 steps with 256 atoms

Performance: 42.440 ns/day, 0.566 hours/ns, 245.600 timesteps/s
86.7% CPU use with 6 MPI tasks x no OpenMP threads

MPI task timing breakdown:
Section |  min time  |  avg time  |  max time  |%varavg| %total
---------------------------------------------------------------
Pair    | 4067.4     | 4090.6     | 4153.6     |  46.0 |  5.02
Neigh   | 120.4      | 121.54     | 122.44     |   5.8 |  0.15
Comm    | 1045.9     | 1120.1     | 1151.3     | 103.0 |  1.38
Output  | 844.06     | 844.09     | 844.19     |   0.2 |  1.04
Modify  | 75186      | 75196      | 75209      |   2.7 | 92.34
Other   |            | 63.12      |            |       |  0.08

Nlocal:    42.6667 ave 47 max 34 min
Histogram: 1 1 0 0 0 0 0 0 1 3
Nghost:    1092.83 ave 1155 max 1060 min
Histogram: 4 0 0 0 0 0 0 0 1 1
Neighs:    3651.67 ave 4055 max 2978 min
Histogram: 2 0 0 0 0 0 0 1 0 3

Total # of neighbors = 21910
Ave neighs/atom = 85.5859
Neighbor list builds = 1010924
Dangerous builds = 0

write_data	data.final
Total wall time: 22:37:15
