LAMMPS (8 Feb 2019)
Processor partition = 0
echo both

include		in.partitions
variable p_id world   0
include		in.temp
variable	temperature equal 2000.0
variable	tempDamp equal 0.1 # approx 0.1 ps
include		in.pressure
variable	pressure equal 300000.
variable	pressureDamp equal 1.0
include 	in.seed
variable	seed world 74581
units		metal
include		in.box
read_data	data.equil.${p_id}
read_data	data.equil.0
  orthogonal box = (-0.102744 -0.102744 -0.102744) to (15.1027 15.1027 15.1027)
  1 by 2 by 3 MPI processor grid
  reading atoms ...
  250 atoms
  reading velocities ...
  250 velocities

variable 	mass equal 26.981539
mass            1 ${mass}
mass            1 26.981539
include 	in.setup
variable	out_freq equal 500
variable	out_freq2 equal 500

neigh_modify    delay 10 every 1
include		in.al
### Argon Potential Parameters ###
pair_style 	eam/alloy
pair_coeff 	* * Al99.eam.alloy Al

timestep	0.002 # According to Frenkel and Smit is 0.001

thermo          ${out_freq}
thermo          500
thermo_style 	custom step temp pe press lx


restart 	${out_freq} Restart.lmp.${p_id} Restart2.lmp.${p_id}
restart 	500 Restart.lmp.${p_id} Restart2.lmp.${p_id}
restart 	500 Restart.lmp.0 Restart2.lmp.${p_id}
restart 	500 Restart.lmp.0 Restart2.lmp.0



# NPT

include		in.dump
dump            myDump all atom ${out_freq2} dump.na.${p_id}
dump            myDump all atom 500 dump.na.${p_id}
dump            myDump all atom 500 dump.na.0
dump            myDcdDump all dcd ${out_freq2} out.${p_id}.dcd
dump            myDcdDump all dcd 500 out.${p_id}.dcd
dump            myDcdDump all dcd 500 out.0.dcd
dump_modify	myDump append yes
dump_modify     myDcdDump append yes


timer 		timeout 23:50:00 every 1000
New timer settings: style=normal  mode=nosync  timeout=23:50:00

fix             1 all plumed plumedfile plumed.start.dat outfile plumed.out.${p_id}
fix             1 all plumed plumedfile plumed.start.dat outfile plumed.out.0
fix             2 all nph iso ${pressure} ${pressure} ${pressureDamp}
fix             2 all nph iso 300000 ${pressure} ${pressureDamp}
fix             2 all nph iso 300000 300000 ${pressureDamp}
fix             2 all nph iso 300000 300000 1
fix             3 all temp/csvr ${temperature} ${temperature} ${tempDamp} ${seed}
fix             3 all temp/csvr 2000 ${temperature} ${tempDamp} ${seed}
fix             3 all temp/csvr 2000 2000 ${tempDamp} ${seed}
fix             3 all temp/csvr 2000 2000 0.1 ${seed}
fix             3 all temp/csvr 2000 2000 0.1 74581
fix		4 all momentum 10000 linear 1 1 1 angular

run             50000000 upto # 100 ns
Neighbor list info ...
  update every 1 steps, delay 10 steps, check yes
  max neighbors/atom: 2000, page size: 100000
  master list distance cutoff = 8.28721
  ghost atom cutoff = 8.28721
  binsize = 4.1436, bins = 4 4 4
  1 neighbor lists, perpetual/occasional/extra = 1 0 0
  (1) pair eam/alloy, perpetual
      attributes: half, newton on
      pair build: half/bin/atomonly/newton
      stencil: half/bin/3d/newton
      bin: standard
Per MPI rank memory allocation (min/avg/max) = 4.003 | 4.003 | 4.004 Mbytes
Step Temp PotEng Press Lx 
       0    1782.0925   -696.55799     287606.5    15.205488 
     500     1841.429   -684.62983    312717.69    15.121195 
    1000    1970.9594   -700.64608    274928.36    15.257943 
    1500    2082.9854   -690.07877    311616.75    15.128849 
    2000    1872.4552   -697.17257    291345.86    15.184611 
    2500     2147.808   -686.49191    305089.26    15.184226 
    3000    2055.5631   -693.97195    305784.12    15.163595 
    3500    2055.5718    -703.6692     282069.6     15.21365 
    4000    2001.0856   -689.09836    303267.04    15.144051 
    4500    2009.1974   -696.73565    292736.55    15.182525 
    5000    2054.4454   -691.26984     310735.2    15.141455 
    5500    2170.8992   -692.50882    289651.99    15.224687 
    6000    1827.9649   -693.89368    302289.79    15.161081 
    6500    2122.5777   -688.29074    299464.69    15.200151 
    7000    2001.0889   -697.37741    293189.14    15.175959 
    7500    1979.3867   -683.47024    305704.32    15.147195 
    8000    2044.3833   -702.65394    283803.37     15.23176 
    8500    1974.4069   -685.22509    311874.88    15.140028 
    9000    1784.6115   -692.49301    288116.33    15.199227 
    9500    2000.1108    -690.3177    308770.46    15.159721 
   10000    1948.9568   -689.25134    294717.77    15.190245 
   10500     2058.997    -706.8662    279007.48    15.229824 
   11000    1933.9201   -685.25472    312093.33    15.117601 
   11500    1876.8878   -695.44016    291288.64    15.208619 
   12000     2264.211   -701.78554    297415.76    15.160642 
   12500    1854.1097   -689.82663    300857.05    15.153158 
   13000    2034.6261   -697.08017    291158.86    15.207388 
   13500    2246.7377   -684.40338    311775.57    15.147778 
   14000    1873.0998    -689.4538    308816.86    15.148363 
   14500    2029.2015   -686.61271     312731.2    15.110337 
   15000    2022.4515   -707.38001    261315.48    15.223055 
   15500    1759.9331   -703.16778    286554.04     15.17279 
   16000     1904.998    -690.9487     316985.2    15.061217 
   16500    1877.5024   -705.80833    294322.32    15.137971 
   17000    2111.0881   -695.94352    294928.94    15.143235 
   17500    2125.8744   -702.22665    293497.92    15.159743 
   18000    2028.7567   -692.17728    309903.64    15.103394 
   18500    1932.4758   -701.67887    291603.28    15.159342 
   19000    1879.5515   -691.86159    311656.15    15.093047 
   19500    1896.5002    -695.4137    296657.31    15.178851 
   20000    2077.5337   -685.20582    313416.98    15.104407 
   20500    2078.4865   -695.05989    287245.14    15.211557 
   21000    1992.6775   -681.91626    313631.02    15.110402 
   21500    2075.0475   -693.54994    299913.22     15.11807 
   22000    2058.9741   -699.79308    302424.39    15.015242 
   22500    2097.7509   -708.10117    281711.53    15.050161 
   23000    1989.7025    -701.3971    312362.06     14.90698 
   23500    2124.0758   -703.24121     307401.4    14.917934 
   24000    1928.0625   -701.48619    302719.11    14.885034 
   24500    1910.8635   -702.14812    301251.45    14.953018 
   25000     2169.889   -709.23058    295893.16    14.959969 
   25500    2111.7627   -701.45724    306893.57    14.917475 
   26000    1939.5175   -712.36649    279075.69    14.992052 
   26500    1963.7626   -707.23756    299854.52    14.902914 
   27000    1995.5251   -699.50139    315598.76    14.870398 
   27500    2081.6958   -712.10151       290700      14.9535 
   28000    2003.9946   -705.23804    295710.52    14.962173 
   28500    2225.3245   -706.66053    304705.26    14.915077 
   29000    2126.6183   -708.70298    294515.76    14.945171 
   29500    2059.5848   -704.31092    300137.83    14.925851 
   30000    1853.6126   -705.32996     308581.6     14.86858 
   30500    1987.5037   -708.80791    297171.87     14.95856 
   31000    1989.9854   -701.07148    314978.92    14.894412 
   31500    2044.6488   -701.31015     308415.4    14.867096 
   32000    2066.0797   -699.00901    303179.76    14.945223 
   32500    2000.1811   -705.51673    296550.12    14.990893 
   33000    1981.9132   -707.98418    282070.03    15.035711 
   33500    1837.1975   -698.69486    309253.12    14.921396 
   34000    1964.4664   -701.52735    301010.89    14.955892 
   34500    1930.4851   -699.34851    301825.39    14.949449 
   35000    2055.9175    -706.9364    300184.93    14.901538 
   35500    1883.4064   -696.09482    318265.19    14.897792 
   36000     1836.903   -702.97868    305344.31    14.936747 
   36500    1987.6354   -704.35278    301959.07    14.960814 
   37000    1907.2208   -706.78913    287721.74     15.02668 
   37500    1943.6975   -700.44646    300367.03    14.998795 
   38000    1983.4803   -704.37484    291733.09    15.011641 
   38500    2113.3471   -698.51432    306159.43    15.002439 
   39000    1932.8665   -707.04545    289320.33    15.019778 
   39500    2128.9544    -704.8628    296956.86    15.014445 
   40000    1977.4583   -702.89969    296644.11    14.993385 
   40500    2073.3572   -703.99683    297548.15    15.001107 
   41000    2040.6866   -708.40892    293563.53    15.008332 
   41500    1995.0549   -703.64797     313615.6    14.917195 
   42000    2050.1321   -700.71901    311328.36    14.919876 
   42500    1976.2843   -701.36648     301897.5    14.981188 
   43000    1936.3449   -696.23089     311265.7    14.937915 
   43500    2000.9748   -697.55907    301904.12    14.981756 
   44000    2161.9632   -701.84988    302147.26    14.972191 
   44500    1976.9835   -700.32261    311613.63    14.859681 
   45000    1913.6154   -712.88756    281096.92    15.064729 
   45500     1960.419   -703.61714    295123.24    15.018792 
   46000    2099.2629   -704.09525    293024.49     15.07804 
   46500    2078.1355   -702.56499    301846.53    15.014724 
   47000    1916.6933   -703.84401    295562.11    15.029871 
   47500    1940.8691   -699.25594    300372.76    14.996491 
   48000     1974.514   -708.13212    296760.11    15.039207 
   48500    2007.8393   -707.28154    294090.19     15.01858 
   49000    1997.5987   -693.48348     303781.4    14.993683 
   49500    1868.8315   -709.06673     292597.5    14.996193 
   50000    2029.7657   -708.71093    287090.33    15.042844 
   50500    1994.5623   -703.48423    291904.91    14.994378 
   51000    2074.0773   -693.17036    307684.89    15.003917 
   51500    2096.8307   -714.03694    287220.78    14.962875 
   52000    2046.8231   -695.57002    301593.74    15.057013 
   52500    1954.9425   -712.68714    280770.03    15.103385 
   53000    2096.4975   -700.62815    300586.24    15.040667 
   53500    1932.2788   -702.87143    287289.87    15.060047 
   54000    2044.4871   -700.30398    312262.41     14.93918 
   54500    1955.5658   -700.91076    301510.13    15.015475 
   55000    2050.3949   -703.23463    294162.05    15.069808 
   55500    2099.4618   -695.91502    315828.86    15.018532 
   56000    2113.2186   -704.28959    296946.46    15.060349 
   56500    1977.6533   -697.32792    302839.66     15.05556 
   57000    1868.7903   -706.75316    289023.18    15.091518 
   57500     1886.227   -703.36603    291830.87    15.071884 
   58000    1926.1038   -698.56991    296129.76    15.069696 
   58500    2170.3248    -703.2519    300691.32    15.021056 
   59000    2071.4108   -700.44511    306288.79    14.998242 
   59500    2001.7652   -711.93701    285788.46    15.125278 
   60000    1966.7126    -706.6352    295911.47    15.057165 
   60500    1956.6592   -703.80156    285277.19    15.067826 
   61000    2060.5986   -693.32268    316797.36    14.957393 
   61500    1806.9543   -710.27858    286310.84    15.034548 
   62000    2186.8317   -701.12729    304190.65    15.012464 
   62500    2031.3228   -695.53283    309930.27    15.037081 
   63000    2186.4493   -710.35947    287799.66    15.061815 
   63500    2161.3955   -695.97401    317786.04    14.959549 
   64000    1945.5797   -703.77703    290604.56    15.083223 
   64500    1976.1816   -700.17345    293753.61    15.086687 
   65000    2115.2478   -705.76612    300829.64    15.041737 
   65500    2020.4373   -699.85943     298528.8    15.048265 
   66000    2067.3361   -703.38606    305190.94    15.011942 
   66500    1929.9016   -704.07655    295980.55    15.056269 
   67000     1852.786   -706.64076    294040.08    15.046665 
   67500    2033.9497   -701.58426    300564.27    15.035871 
   68000    2130.3921   -697.56213    302525.22    15.045105 
   68500    1955.0256   -701.25268    297754.05    15.072626 
   69000    2187.5122   -702.94835    303972.84    15.055752 
   69500    2005.5108   -691.90378    313702.16    15.022722 
   70000    2054.6539   -702.20948    296119.88    15.090152 
   70500    1991.1985   -713.80172    273295.02    15.171711 
   71000    1933.3979   -696.08352     311227.1    15.008191 
   71500    1989.6904   -699.33382    298050.66    15.034718 
   72000    2048.5492   -707.11026    292150.86    15.052321 
   72500    2134.5102   -701.94071     303549.1    15.018116 
   73000    2061.3125   -692.11561    315880.62    15.014713 
   73500    1963.3774   -701.92564    288586.09    15.112966 
   74000    2185.6664   -704.11195    296203.83    15.108563 
   74500    2114.1605   -702.76234    297243.81    15.090222 
   75000    2034.2052   -694.36421    311932.41    15.022898 
   75500    1817.3995   -696.50192    301368.49    15.053225 
   76000    1871.1593    -700.4499    301823.81    15.073647 
   76500    2072.0698   -706.60107    287532.83    15.073986 
   77000    2010.3336   -692.82101    315961.54    15.005386 
   77500    1854.2865   -700.64486    307181.68    15.003637 
   78000       2235.8    -696.6542    302029.54    15.085923 
   78500    1957.2429   -700.41346    301722.65    15.084533 
   79000    2033.1007   -699.43812    298330.19    15.133412 
   79500    2240.7082   -699.57863    311479.36    15.050437 
   80000    2074.7475   -698.54988    312267.69    15.034838 
   80500    2095.0805   -703.36842     289699.4    15.120502 
   81000    2217.9735   -701.31825    304477.93    15.040484 
   81500    1953.3846   -704.29887    284353.44    15.117972 
   82000    1939.5324   -696.99193    299326.17    15.115813 
   82500    1996.4366   -705.86993    293548.85    15.067491 
   83000     2007.769   -692.91007    304978.75    15.100471 
   83500    1912.5248   -704.04218    284347.97    15.130465 
   84000    2021.7315   -701.47979    307040.98    15.024033 
   84500    2078.4308   -697.38506    300810.36    15.075866 
   85000    2234.9164   -706.38632    288840.66    15.143205 
   85500    2221.4723    -700.8965    295769.42    15.137787 
   86000    2016.7771   -699.77092    310140.79     15.03257 
   86500    1914.6001   -701.79041    299541.43    15.104421 
   87000    2091.8146   -687.54983    315087.22    15.089176 
   87500    2068.9825    -683.9346    326978.99     14.96842 
   88000    2101.8631   -696.98923    298813.78     15.13358 
   88500    1972.4973   -708.63477    286265.64     15.15059 
   89000    2201.4241   -702.45428     305506.4    15.068524 
   89500    1955.5423   -696.38058    303951.85    15.100565 
   90000    2183.4756   -698.67413    299711.46    15.095288 
   90500    1995.2554   -697.44822    294051.49    15.153822 
   91000       1911.4   -696.07885    296259.38    15.117173 
   91500    1736.6698   -700.40038    294199.96    15.128463 
   92000    1882.5742   -696.03258    300051.32    15.122331 
   92500    2162.5975   -696.66333    297757.84    15.136653 
   93000    2067.4748   -695.54025    309014.97    15.085897 
   93500    2098.8966   -696.27274    306543.12    15.096007 
   94000    1914.3558   -694.38858    295672.79    15.150709 
   94500    1861.0124   -690.83668    321321.84    15.021382 
   95000    1882.9885   -701.12122    293003.44     15.14955 
   95500    2053.3898   -701.93836    287265.36    15.171338 
   96000    2327.7982   -697.67644    305755.82    15.115166 
   96500    1922.7908   -699.03355    290097.52    15.162788 
   97000    2115.5837   -694.49371    311848.68    15.084083 
   97500    1979.5345   -707.80758     281803.7    15.180984 
   98000    2114.9971   -702.81844    294640.78    15.138632 
   98500    1938.1037   -685.52745    315437.39    15.059714 
   99000    1970.8426   -700.07726       292696    15.184512 
   99500    2097.3841   -692.01321    304911.47    15.107241 
  100000    2020.9525   -693.86271    300342.91    15.138316 
  100500    1978.1101   -698.96977    295990.78    15.121519 
  101000    2069.7236   -695.13835    329536.34    14.959927 
  101500    2018.6432   -699.37069    297302.53    15.093037 
  102000    2151.0027   -701.05085    298022.42    15.087914 
  102500    2143.9426   -698.23057    304494.72    15.112823 
  103000    2143.8071   -700.97032    292482.47    15.160875 
  103500    1911.6601   -698.33585    294719.11    15.132343 
  104000    2087.6623   -696.43166    306208.86    15.108371 
  104500    1942.3622   -691.86912    309220.88    15.082849 
  105000    1864.5925   -701.93216    297246.99     15.09952 
  105500    1987.5639   -692.45447    308094.83    15.048206 
  106000    1999.3788   -707.46911    279465.61    15.198499 
  106500    1865.4777   -690.62937    302360.63    15.126614 
  107000     1940.303   -695.35943    295414.92    15.180176 
  107500    1962.9434   -694.11198    304215.86    15.108865 
  108000    2125.6243   -690.02678    306519.65    15.115116 
  108500    2007.0183   -702.88251    296522.44    15.103773 
  109000     2022.742   -692.86429    308061.79    15.060655 
  109500    1803.3463   -698.26459    296617.75    15.114431 
  110000    1980.3763   -698.25928     302476.6    15.102255 
  110500    2088.1677   -700.81984    298262.13    15.103275 
  111000    2009.5018   -702.15282    298860.29    15.100815 
  111500    2079.2989   -693.84458    313876.95    15.029504 
  112000    1857.3847   -698.26609    288994.82    15.144635 
  112500    1839.0149   -694.78017    296732.73     15.08673 
  113000    1985.7284   -696.46521    300162.85    15.102918 
  113500     1960.047     -697.801    296670.36    15.125351 
  114000    2068.2377   -699.24114    306614.75     15.03659 
  114500    2042.0819   -696.33947    307151.12    15.082036 
  115000    2080.8084   -696.21276     300611.8    15.141323 
  115500    2080.8874   -701.70911    290831.03    15.156348 
  116000     1977.995   -692.66174    310496.75    15.108543 
  116500    2121.8401    -698.5358    301425.44    15.101912 
  117000    1898.0869   -702.40158    285804.37    15.166472 
  117500    1943.7986   -700.10686    302644.15    15.084091 
  118000    2022.6083     -700.727    280462.36      15.1968 
  118500    1998.4789   -691.21733    308304.15    15.092356 
  119000    1996.0461   -697.14885    300562.28    15.119868 
  119500    2151.0397   -693.63394     300977.3    15.148976 
  120000    2075.1687   -693.87993    307482.94    15.095575 
  120500    1858.0096   -703.94187    273141.79    15.226558 
  121000    2088.6371   -691.17462    308523.35    15.101388 
  121500    1959.0991   -694.67686    297609.23    15.164272 
  122000    2111.9941   -679.24959     317337.5    15.081233 
  122500    2123.6818    -699.1327    295219.05    15.172825 
  123000    2113.2541   -705.65416    288359.28     15.20634 
  123500     2104.768   -688.01337    303786.98    15.193922 
  124000    2196.8499   -688.41651    305922.26    15.148175 
  124500    1756.0567   -697.39845    286776.45    15.240487 
  125000    1807.1021    -688.5378    302392.05    15.183868 
  125500    2276.0586   -693.38811     298190.9    15.220745 
  126000    2024.6538    -695.3055    300833.52     15.19705 
  126500    1854.8688   -689.78521     305406.6    15.172349 
  127000    1674.4044   -680.97349    308018.93       15.178 
  127500     2071.721   -699.24268    281764.62    15.234733 
  128000    2024.9106   -689.95602    307456.43    15.161984 
  128500    2032.6983   -683.60029    304686.66    15.193845 
  129000    2086.4739   -692.77737    299077.74    15.197565 
  129500     1879.996   -689.51491    295032.25    15.210833 
  130000    1882.8998   -695.89351    300683.64    15.200091 
  130500     1943.863   -686.01989    299373.37    15.187164 
  131000    1954.7161    -699.5998    286816.03    15.233102 
  131500    2058.2091   -693.32947    308086.51    15.130973 
  132000    1840.8677   -692.65999    311281.56    15.155565 
  132500    2236.0114   -695.31978    282974.48    15.285593 
  133000    2043.7723   -681.69529    317929.27    15.118393 
  133500    1992.3374   -696.93243    290013.67    15.198584 
  134000    1837.2252   -696.53101     293690.8     15.18049 
  134500    1858.3713   -689.00302    303066.34    15.178016 
  135000    1937.1416   -698.91724    298172.82    15.178497 
  135500    1834.7196   -679.83271    324479.09    15.072501 
  136000    1987.5543   -691.87299    303336.54    15.142228 
  136500    2003.9383   -703.74449     300289.8    15.113081 
  137000    1977.8362   -693.85986    307224.78    15.117407 
  137500    2050.3544   -690.02136    303546.72     15.12702 
  138000     2053.455   -703.60291    292961.65    15.177929 
  138500    2025.3248   -691.21941    309838.42     15.11242 
  139000    2092.5851   -697.12041    303973.26    15.147025 
  139500    2031.9978   -703.26241    297062.83     15.13901 
  140000    2103.0664   -693.27658    311764.58    15.081593 
  140500    2169.8386   -704.29616     296228.6    15.135977 
  141000    1937.9853   -698.01776     303791.1    15.144473 
  141500     1975.096   -694.50302    304903.95    15.150707 
  142000    2048.9959   -699.13136    293917.07    15.219359 
  142500    2035.0733   -685.41596    313628.48    15.093923 
  143000    1948.3576   -696.75775    302741.86    15.154387 
  143500    1937.2002   -695.42254    305023.64    15.125699 
  144000    2039.7583   -696.94395    300282.88    15.156559 
  144500    2058.8232    -686.6182    309869.64    15.114797 
  145000    2026.0409   -695.14403     303369.7    15.157766 
  145500    2085.1003   -698.31907     294107.8     15.18214 
  146000    1846.0376     -694.367    297212.99    15.166478 
  146500    1947.4629    -701.5565    281632.21    15.249419 
  147000    2071.6967   -694.63092    303516.69    15.130341 
  147500    1995.6232   -701.45589    285036.84    15.203517 
  148000    1756.8464   -683.37263    318156.51     15.09857 
  148500    2164.5905   -703.97283    279764.06    15.250163 
  149000    1747.8307   -689.69214    308257.95    15.154121 
  149500    2072.4165   -698.26765    302993.58    15.158438 
  150000    1843.2631   -699.67104    291834.78    15.202625 
  150500    1971.4809   -690.49517     313942.7    15.107263 
  151000    1884.3351   -703.91196    283605.08    15.226005 
  151500    2077.4107    -691.0199    302564.71    15.187864 
  152000    2015.3449   -690.34844    301473.38    15.166266 
  152500     2125.432   -699.07415    290685.38    15.202175 
  153000    2039.6797   -691.14454     316263.6    15.085865 
  153500    1868.5535   -698.60279    284094.04    15.229985 
  154000    1965.7974   -693.55875    304923.02     15.14366 
  154500     1832.994   -698.40839    294932.47     15.12995 
  155000     2067.208   -694.39469    293086.52      15.1189 
  155500    1805.5339   -697.90024    284568.12    15.204798 
  156000    2011.9171   -694.23113    317261.29    15.036335 
  156500    1778.2435   -693.73292    293226.72    15.188956 
  157000    2011.5163   -695.84578    310290.43    15.123825 
  157500    2207.9347   -690.42179    315507.89     15.11918 
  158000    1954.1247   -701.78497    291230.85    15.190609 
  158500    1885.5414   -690.79559    306862.89    15.150461 
  159000    2350.7777   -692.61874    297466.65    15.200793 
  159500    1820.4982    -694.0544    288277.12    15.194814 
  160000     1902.993   -690.13888    315657.15    15.084734 
  160500    1854.7707   -692.30908    302974.58     15.14421 
  161000    2017.5666   -694.87025    301735.45    15.170367 
  161500    2108.3729   -688.09615     307101.7    15.176204 
  162000    2032.2161   -694.14288    305985.62    15.132863 
  162500    2013.0329   -698.31508    294161.09    15.170685 
  163000    2098.5195   -698.28813    300804.27    15.167765 
  163500     2079.606   -688.51582    315859.16    15.101255 
  164000    1992.9411   -703.34951    283104.17     15.21024 
  164500    2028.2373   -695.15001    309965.58     15.13028 
  165000    2017.1658   -699.18301    302264.49    15.128581 
  165500    2100.6625   -703.14896    293882.48    15.158204 
  166000    2065.3643   -679.93803    315934.38    15.105954 
  166500    1907.5793   -700.26191    297717.92     15.13907 
  167000    1919.0502   -701.88032    289332.05    15.146173 
  167500    2092.2878   -684.43784    317279.53    15.098669 
  168000    1958.3171   -693.89573    293601.66    15.156606 
  168500    2040.4178   -697.56939    302309.07    15.121777 
  169000    1960.6133   -704.86253    285573.81    15.171326 
  169500    2004.0743   -703.48295    295219.66    15.110987 
  170000    2013.3977   -693.84828    319350.16    15.013015 
  170500    1929.8348   -703.97274     292680.8    15.123172 
  171000    2189.0448   -694.58749    306988.57    15.079981 
  171500    2095.5369   -698.18686    288521.72    15.168108 
  172000    1980.6817   -691.98722    303638.17    15.082948 
  172500     1973.259   -706.22129    285872.14     15.16291 
  173000    1911.6589   -688.03402     319260.5    15.063974 
  173500    2202.9518   -704.30033    286457.64     15.19354 
  174000    2088.5211   -696.76193    300714.73    15.130829 
  174500    2110.3803   -694.28339    306437.54    15.117585 
  175000    2042.8212   -699.86951    297630.71    15.109617 
  175500    1923.1981   -702.34756    287335.28    15.181246 
  176000    1947.2607   -692.93071    306084.85     15.09536 
  176500    2057.8984   -703.19555    291125.74    15.126507 
  177000      1932.81   -697.09313    306296.46    15.117218 
  177500    1986.8164   -699.20103    300001.36    15.123945 
  178000    1936.9145   -687.02848    302784.51      15.0961 
  178500     1906.057   -692.02588    294229.77    15.159817 
  179000    2073.5677   -698.00505    293720.88    15.163039 
  179500    1994.7197   -686.96884    310872.14    15.098757 
  180000    2123.7883   -698.57098     288783.7    15.181842 
  180500    2018.4177   -703.56979    293335.01    15.154603 
  181000    2101.3457   -700.92885    287250.59    15.157353 
  181500     1936.683   -681.25604    317542.18    15.082248 
  182000    2140.5834   -700.28569     290320.2    15.164074 
  182500    2035.2271   -701.20054    303842.94    15.114741 
  183000    2005.4404   -702.78477    288288.69    15.169072 
  183500    1993.0695   -703.02764    294530.51    15.101041 
  184000    1866.4433   -695.16637    312354.33    15.064391 
  184500    1929.0653    -698.5479    300841.09    15.056554 
  185000    1936.8158    -691.0115    297826.29    15.127636 
  185500    2136.6336   -700.23275    299269.56    15.117107 
  186000    1862.3244   -698.93056    292377.93    15.132809 
  186500    1930.3128   -688.87014    318657.71    15.036824 
  187000    1984.0475   -707.59333    278331.41    15.195421 
  187500    2053.6075    -693.8541    296874.16    15.151097 
  188000    1899.4093   -695.34908    303926.68    15.112986 
  188500    2153.1968    -698.5552    287621.16    15.159565 
  189000    1993.0198   -694.52406    307397.82    15.092542 
  189500    2129.1315   -700.69755    294991.29    15.125836 
  190000     2263.115   -693.36447    307660.32    15.129317 
  190500    1880.7283   -699.29211    299949.55    15.096666 
  191000    2049.9005   -707.63887     293501.9    15.110251 
  191500    1917.0041   -694.57414    306488.86     15.08839 
  192000    2051.7534    -700.2825    294379.39    15.092899 
  192500    2066.9225   -700.58725    292584.88     15.13362 
  193000    1961.3948    -694.2227    307920.67    15.018767 
  193500    1923.1377   -695.26087    319163.59    15.006688 
  194000    1908.7629   -698.63818    304902.97    15.032938 
  194500    1945.6235   -688.59637    323020.31    14.972704 
  195000    1967.5492   -702.23593    293419.61    15.070989 
  195500    1952.7914   -703.63509    304199.07    14.985734 
  196000    2111.0285   -705.92896    288621.54    15.099861 
  196500    2101.0587   -699.77949    306680.43    15.032192 
  197000    2040.0332   -698.47467    291983.43     15.16316 
  197500    2055.0954   -703.90827    291757.16    15.170727 
  198000    1977.4466   -697.63844    312932.47    15.038468 
  198500    1831.7661   -696.66032    298321.47    15.120241 
  199000    1955.3112   -693.66701    310588.38    15.068724 
  199500    2008.5813   -694.10921    297690.33    15.195614 
  200000    2064.4617   -694.69722    306042.07    15.132709 
  200500    1963.5342    -691.7499    315973.92    15.071136 
  201000     2049.652   -703.90998    282082.02    15.168455 
  201500    2137.1212   -694.54385    310922.04    15.043083 
  202000     2100.917   -692.75134    305596.67    15.066376 
  202500     1999.094   -697.64243    301475.17     15.13392 
  203000    1957.3184   -692.48888    296673.38    15.139492 
  203500    2013.5513   -691.03192    316744.12    15.062695 
  204000    2067.7526   -693.21302    300808.44     15.09931 
  204500    2095.2641   -704.84809    290895.89    15.135075 
  205000      1947.36   -695.71285    300944.73    15.093141 
  205500    1884.2532   -690.39086    304328.24    15.117731 
  206000    1996.6464   -713.49327    282597.24    15.173326 
  206500    2076.1598   -695.65704     303686.3    15.118321 
  207000    2156.7737    -695.1938    305199.84    15.133057 
  207500    1859.8917   -700.08497    302019.08    15.063854 
  208000     1842.117   -695.37292    322413.07    14.971356 
  208500    1906.9202   -706.02826    281375.39    15.115112 
  209000     1947.719   -701.55299    291358.59    15.111217 
  209500    1932.9155    -697.6585    302546.65    15.044555 
  210000    1973.5054   -704.36524    294901.16    15.063854 
  210500    1923.3307   -687.06609    319532.07    15.032368 
  211000    1843.3609   -710.00544    288696.55    15.053088 
  211500    1953.2067   -708.67732    302866.25    14.900133 
  212000    1938.0983   -700.20229    319650.06    14.800752 
  212500    2130.1278    -709.1002    300922.74    14.881636 
  213000    2036.3806   -707.53576    299639.52    14.901151 
  213500    2030.7318   -703.93248    298090.53    14.948139 
  214000    1976.5496   -705.52158    301258.56    14.896653 
  214500    2090.6084   -695.21728    318882.65     14.88979 
  215000    2071.7179   -702.88431    304364.15     14.96643 
  215500    1861.9128   -704.61055     294157.8    15.029341 
  216000    1959.8007   -699.15609    312721.72    14.953962 
  216500    1997.2922   -704.94077    303749.97    14.852012 
  217000    1971.0916   -709.66936    295990.15    14.907653 
  217500    1893.0387   -712.69335    290424.07    14.950587 
  218000    1960.6177   -702.62877    318277.12    14.842288 
  218500    1937.2012   -706.75683    303180.07    14.867583 
  219000    2169.8889   -710.08899    291988.28    15.003269 
  219500    2014.4055   -711.23397    286371.12    15.098834 
  220000    2164.7383    -688.8394    321296.64    14.999083 
  220500    2128.9677   -697.87624     294741.2    15.132717 
  221000    2006.5208   -699.55523    281586.92    15.210041 
  221500    1776.1129   -694.14993     292291.6    15.161657 
  222000    2020.1754    -692.1851     313933.3     15.07718 
  222500    2088.0708   -700.79045    286127.63    15.188526 
  223000    2075.6204    -693.1595    315602.83    15.067191 
  223500    1866.7703   -700.54771    293467.79    15.082338 
  224000    2019.9719   -702.45069    295265.03     15.00773 
  224500    2017.4251   -693.49044    312152.41    15.011174 
  225000    1884.0296   -709.95326    286532.06    15.109274 
  225500    2079.3627   -700.32605    299478.21    15.068174 
  226000    2128.2861   -698.44497    298523.24    15.092393 
  226500     1805.894    -705.0229    297585.65    15.088475 
  227000    1755.2717   -697.12993    296262.94    15.112007 
  227500    2108.7187   -694.59067    314160.71    15.067184 
  228000    2050.6583   -695.89611    306294.58    15.117925 
  228500     1892.983   -702.82144    292161.88    15.159189 
  229000    1950.2924   -693.86909    306487.54    15.116178 
  229500    1909.0065   -691.11668    311849.04    15.051313 
  230000    2082.0393   -703.41809    286444.14    15.184705 
  230500    2045.8112   -697.60805    316736.55    15.029563 
  231000    2058.8009   -704.54118    296603.31    15.089403 
  231500    1741.0013   -701.76886    296663.35    15.086307 
  232000    2066.9649   -701.42344     294177.9    15.111649 
  232500    1934.1198    -688.6048    314660.11    15.020602 
  233000     2061.633   -701.00966    299296.27    15.078445 
  233500     1987.092    -703.7496    291624.27    15.060674 
  234000    1950.6778   -703.62058    296322.42    15.047098 
  234500    2170.5013   -694.78953    295076.51    15.085228 
  235000    2032.2198   -702.28911    302488.75    15.019743 
  235500    1873.7385   -700.37178    301421.74    15.076391 
  236000    1945.1827   -695.64103    293672.43     15.13485 
  236500    1942.2929    -694.4475    304471.77    15.091077 
  237000    1852.5912   -700.24316    292502.85    15.087254 
  237500    1884.4731   -699.45816    292823.89    15.115487 
  238000    2053.9078   -697.12827    318018.09    15.014528 
  238500    1951.7072   -703.33582    292839.01      15.1042 
  239000    2013.7357   -700.53304    292141.12    15.133115 
  239500    1858.0846   -692.68771    302552.05    15.066021 
  240000    1885.0457   -697.64828    301846.78    15.079225 
  240500     2036.462   -698.15845    304399.19    15.050387 
  241000    2037.3994   -701.41546    302716.56    15.040873 
  241500    1926.1608      -705.65    303481.97    14.995956 
  242000    1975.8812     -699.848    302717.56    15.021303 
  242500     1869.975   -706.78814    286582.62    15.053902 
  243000    2180.0521   -704.48526     302958.3    14.915911 
  243500    1977.3886   -710.50975    286799.49    14.953362 
  244000    1854.3069    -701.9959    319575.24    14.834161 
  244500    2058.9638   -710.90085    284959.53    14.956655 
  245000    2064.8737   -698.50554    318536.52      14.8287 
  245500    1919.0693   -712.29809    290844.56    14.909459 
  246000    2139.7174   -705.40433    306626.99    14.882476 
  246500    1873.1418   -711.90986     289697.1    14.927204 
  247000    2010.6404   -703.48174    305929.88    14.977427 
  247500    2027.8226    -697.1408    315187.61    15.022975 
  248000    2118.7327   -702.48839     298330.8    15.083175 
  248500    2066.6543   -707.35682    284454.67    15.106205 
  249000    2055.9518   -703.74431     302839.9     15.04234 
  249500    2054.7991   -696.92548    317994.07    15.009144 
  250000    2067.2583   -703.31446     300233.7    15.049952 
  250500    2182.2961   -697.10307    309110.52    15.034971 
  251000    1821.4586   -703.39528     298001.2    15.033073 
  251500    2010.5113   -697.70492    314950.63    14.960916 
  252000     2058.441   -697.56572     292421.1    15.119509 
  252500    2088.0947   -694.31571    313763.06    15.045371 
  253000    2165.4532   -705.69706     284483.2    15.149697 
  253500    2151.6643   -702.94718     303994.9    15.088089 
  254000    2023.7247   -692.52601    313704.55    14.985276 
  254500    1982.5334   -702.56553    294333.76    15.073705 
  255000    2038.0033    -711.0533    296534.22    15.008335 
  255500    1827.9431   -711.44271    282804.02    15.110926 
  256000    2083.0571   -704.47685    295456.99    15.095833 
  256500    2193.8304   -693.12799    317729.73    14.987272 
  257000    1915.0944   -703.67301    288208.33    15.107141 
  257500    1965.9372   -704.17754    300793.84    14.970839 
  258000     2110.166   -691.44532    313729.42    15.043775 
  258500    1854.1562   -698.29955    300816.69     15.09001 
  259000    2148.5081   -699.82558    289484.16    15.119763 
  259500    2131.8282   -695.95856    297963.77      15.0795 
  260000    1864.2982   -692.07487    321691.47    14.979706 
  260500    2035.9459   -704.80577    279232.21    15.169241 
  261000    2257.5827   -694.47061    303337.99    15.116471 
  261500    1946.8627   -696.78895    324087.61    14.890328 
  262000    1904.6948   -700.85967    297237.92    15.037293 
  262500    1966.6077   -693.66804    314607.35    14.982317 
  263000    2026.2436    -702.0247    297528.39    15.017352 
  263500    2120.9298   -701.95355    300135.44    15.049206 
  264000    1915.7316   -700.42907    290359.07    15.149086 
  264500    2034.4574   -704.43495    294007.44    15.110286 
  265000    1862.1218   -708.60871    293125.57    15.001859 
  265500    1983.7455   -706.29668    296052.11    14.939894 
  266000    2012.8055    -701.6813    309169.37    14.971521 
  266500    2068.6243   -699.55079    302952.97    15.059875 
  267000    1945.2769   -699.10045    297671.96    15.079833 
  267500    2024.0693   -705.36504    297510.34    15.109592 
  268000    2140.4745   -706.69914    289795.46    15.095987 
  268500    1979.0353   -688.75111    309970.96    15.058182 
  269000    1933.1912   -703.74146    290607.14    15.104101 
  269500    1901.3694   -712.76177    277426.84    15.148761 
  270000    1979.4614   -692.42841    325889.39    14.983259 
  270500    2113.6997   -707.22636    301598.34     14.94496 
  271000    1780.9402    -703.6736    297964.91    15.055481 
  271500    1854.9585   -696.27197    305350.44     15.02962 
  272000    2075.3104   -700.09487    301566.11    15.028175 
  272500      1908.21   -695.33997    310454.78      15.0734 
  273000    1852.9834   -691.47031    292730.73    15.174654 
  273500    1927.1797   -693.25552    300580.97    15.165615 
  274000    2178.4654   -703.75706    291775.26    15.182887 
  274500    2269.9114   -686.63149    322509.34    15.066119 
  275000    2033.4817   -703.13554    286394.97    15.196889 
  275500    2099.8624   -697.39362    298005.34    15.163905 
  276000    1885.0568   -688.52214    304565.07    15.138381 
  276500    2039.2879    -699.6724    304629.57     15.13661 
  277000    1932.3627   -693.62031    299120.67    15.153727 
  277500    1986.9169   -697.84501     296882.3     15.16521 
  278000    1983.7248   -695.62573    301659.85    15.144195 
  278500     2067.668   -694.71804    304953.86    15.139107 
  279000    1911.3517    -700.5074     286371.3    15.203313 
  279500    2067.4995   -686.28618    321227.76    15.078122 
  280000    1995.7904   -693.47404    299701.38    15.163685 
  280500    1999.8159   -694.25427    301124.21     15.18994 
  281000    1932.9062   -691.86413     289392.9    15.218758 
  281500    1910.2503   -689.75993    313904.74    15.102849 
  282000    1982.5948   -690.76562    300748.51     15.18378 
  282500    2102.1842   -691.98803    288579.09     15.22817 
  283000    2068.4622   -694.30982     293009.5    15.218554 
  283500    2065.0986   -689.24411    306563.88    15.157281 
  284000    1970.2139   -699.53026    296006.26     15.16266 
  284500    2043.9373   -690.90203    305421.27    15.138718 
  285000    2013.8445     -694.133    294614.75    15.173073 
  285500    2060.2957    -695.2544    297791.68    15.163925 
  286000    2099.7132   -700.28734    286655.33    15.235507 
  286500    2034.0773   -688.90504    297400.66    15.175585 
  287000    2015.8113    -691.0205    291437.95    15.214046 
  287500    2004.9017   -690.01598    301784.21    15.179015 
  288000    1941.9247   -682.39226     324459.6    15.076195 
  288500    2021.9022   -704.21657    283867.13    15.208824 
  289000    1958.2445   -694.00219    306394.87    15.131812 
  289500    2165.1118   -689.31819    309739.84    15.152575 
  290000    2046.8527   -701.69011    269273.03    15.303918 
  290500    1976.2772   -690.51871    307708.15    15.135376 
  291000     2010.545   -694.97617    291999.31    15.181613 
  291500    1939.9079   -694.02098    301495.74     15.17814 
  292000    1794.0438   -686.00202    303545.95    15.157264 
  292500    2060.1632   -686.35789    303402.62    15.172662 
  293000    1933.2541   -693.00159    290334.45    15.218531 
  293500    2043.7471    -681.4862    308956.04    15.162058 
  294000    2042.7203   -697.38035    293015.39    15.210963 
  294500    2100.6697   -691.05481    305411.42    15.159339 
  295000    2023.8171    -694.2639    297623.07    15.195689 
  295500    2011.5223   -690.63711    309573.78    15.136836 
  296000     2022.253   -689.14417    296083.27    15.199361 
  296500    2005.4045   -700.21154    297400.18    15.178615 
  297000    2079.2753   -696.38823    298986.97    15.184628 
  297500    1827.8163   -692.42572    305960.01    15.145751 
  298000    2059.0111   -709.31527    264170.96    15.308596 
  298500     2051.962   -688.03664    312315.46    15.121265 
  299000    2059.2271    -700.2146    290314.36    15.208805 
  299500    1838.5368   -690.98593     292448.9    15.210086 
  300000    2018.8164    -692.9338    298737.22    15.166216 
  300500    2059.7948   -686.56474    307951.13    15.164589 
  301000    1991.1866   -689.90016    300610.57    15.168165 
  301500     2165.476    -681.2805    312016.51    15.169584 
  302000    1989.8829   -694.51465    296592.62    15.199944 
  302500    2211.1191   -694.92017    290014.22    15.229201 
  303000    2023.3824   -686.98963    324575.38    15.083893 
  303500    2078.0646   -695.84762    288528.18    15.204329 
  304000    2169.0892   -693.86559    301096.34    15.170026 
  304500    1947.7047   -699.26905    289960.84    15.205338 
  305000    1876.5665   -692.25119       309646    15.105482 
  305500    2045.9486   -691.18172    299070.36    15.170574 
  306000    2140.9868   -697.70498    295179.32    15.186099 
  306500    2125.8395   -692.33095    301966.76    15.148629 
  307000    2036.5581   -697.25674    297434.86    15.183977 
  307500    2291.4919   -689.41445    301197.51    15.172896 
  308000    1943.5515   -699.82968    288195.58    15.218884 
  308500    2253.2242   -677.89722    333400.22    15.070663 
  309000    1897.8424   -703.43491    296423.75    15.158104 
  309500    1870.5702   -689.76384    311481.06    15.107395 
  310000    2045.8891    -698.7485    293788.17     15.19381 
  310500    2159.0853   -693.46799    285705.99    15.215054 
  311000    1995.4638   -688.39628    302957.46    15.170582 
  311500    2130.9698   -689.96366    289181.98    15.209583 
  312000     2087.549   -688.73828    305762.97    15.181692 
  312500    1824.7633   -703.19746    292600.25    15.202887 
  313000    1950.1378   -694.05106    288955.23    15.207552 
  313500    1844.2131   -681.97877    310115.21    15.158624 
  314000     1880.242   -695.66413    307190.89    15.112392 
  314500    2089.6261   -695.04669    299144.49    15.178347 
  315000    1894.5272   -694.93834    303629.61    15.122226 
  315500    1913.1233   -705.63622    281672.59      15.1813 
  316000    2131.7089   -692.53645    303034.45    15.157005 
  316500    1926.2312   -700.19629    297722.48    15.152389 
  317000    1885.6032   -696.46465    286563.77    15.228879 
  317500    2038.7578   -689.58287    310809.87    15.114213 
  318000    2174.4647   -702.00388    287604.18    15.218451 
  318500    1874.1726   -673.67279    324278.64    15.126132 
  319000    2041.4013    -698.1902    283144.58    15.241573 
  319500    2122.0949   -697.12789    303198.01    15.134596 
  320000    1824.8276   -686.24405    314542.48    15.118394 
  320500    1889.0763   -701.36083    288981.76    15.181431 
  321000     2061.628   -683.08043    316181.15    15.093878 
  321500    2090.5391   -698.00506    291875.08    15.214426 
  322000    1983.1105   -699.63951    292089.85    15.160772 
  322500    1935.2634   -685.52628    307671.37    15.140131 
  323000    1915.8827   -696.54982     293996.5    15.193623 
  323500    2178.5379   -697.45735    302196.39     15.15242 
  324000    2061.5784   -681.93878    321231.53    15.108787 
  324500     1894.719   -698.31777    286832.69     15.22539 
  325000    2210.5017     -696.989    298827.86    15.174222 
  325500    1951.1413   -688.54075    305326.94    15.125426 
  326000    2123.3234   -700.44668    302675.54    15.075917 
  326500    1950.5074    -691.6349    298551.42    15.152283 
  327000    2020.1515   -704.15028     283680.3    15.198053 
  327500    1856.1732    -688.7243    311169.28    15.117919 
  328000    2081.6596   -691.73923     302412.9     15.15902 
  328500    2030.4238   -695.41224    298305.81    15.143088 
  329000    2274.5884   -702.42037    293569.94    15.161012 
  329500    1899.3157   -686.87136    310772.39    15.117627 
  330000    2054.2194   -702.01788    286420.41     15.19892 
  330500    2105.4513   -693.75967    304641.93    15.131356 
  331000    2132.4716   -702.49442    299615.02    15.103902 
  331500    2122.6578   -699.93866    291875.71    15.123273 
  332000    1955.7612   -705.31069    291435.42    15.118127 
  332500    2030.1991   -697.51245    313089.16    15.025632 
  333000    2114.9568   -699.51708    291422.13     15.17368 
  333500    2052.9723   -695.72771    301538.42    15.141587 
  334000    1813.9094   -689.92155    307630.04    15.054623 
  334500    2108.5708   -698.06804     305010.2    15.068253 
  335000    2001.4002   -701.69113    279713.27    15.198233 
  335500    2002.5906   -694.13812    313167.72    15.044653 
  336000    1816.2973   -694.09175    313270.67    15.049423 
  336500    1913.7138   -701.38078    302202.96    15.090625 
  337000    1945.8549   -705.14465    281600.06    15.187245 
  337500    2116.9675    -695.4064     312611.7    15.084805 
  338000    1980.9207   -687.78544    305081.69    15.158351 
  338500    2044.1625   -697.96792    289142.58    15.189302 
  339000    2031.0412   -694.40149    302077.05    15.139486 
  339500    2101.0196   -694.10193     300471.2     15.15656 
  340000    2047.4051   -700.97117    284333.22    15.211007 
  340500    2058.3315    -680.8316    314500.62    15.125646 
  341000    1826.3158   -709.37587    274167.17    15.259115 
  341500    1934.1779    -688.8146    308176.95    15.106244 
  342000    1982.0628   -692.47511    297872.22    15.189004 
  342500    1952.7699   -697.08899     289750.5    15.198668 
  343000    1973.3797   -689.69547    300318.72    15.164206 
  343500    1997.0627   -693.67812    301430.08    15.166193 
  344000    1817.9166   -693.41219    287844.77    15.209236 
  344500    2058.0569   -690.37479    308052.71     15.15067 
  345000    2063.8943   -708.10709    280210.51    15.210085 
  345500    1977.7077   -694.23702    316355.51    15.041645 
  346000    1920.6658   -699.01948    289007.05    15.176225 
  346500    1923.1972   -688.90811    304596.34    15.145224 
  347000     1817.878   -691.82128    286535.63    15.218803 
  347500    1866.5695   -682.60832    324995.71    15.083442 
  348000    2105.8966   -702.67691    288254.61    15.222384 
  348500    2102.1155   -686.87634    303197.01    15.164293 
  349000    2032.3804    -695.5606     294034.9     15.17616 
  349500    2153.5098   -697.12144    297194.91    15.156225 
  350000    2014.6524   -699.09083    296246.88    15.162659 
  350500    2054.2793   -693.58762       301948    15.065746 
  351000    1824.2956   -695.26414    299523.94     15.11407 
  351500    1924.4467   -704.12919    292325.21    15.121331 
  352000    1890.9922   -695.80898    288857.04    15.186061 
  352500    1990.1381   -684.75842    326584.36    14.991155 
  353000     2070.599   -706.51153    287400.28     15.09318 
  353500    1913.3791   -696.98204    303863.58    15.067262 
  354000    2014.6306   -689.60148    314868.31    15.073456 
  354500    2109.5285   -694.96298    303089.09    15.117554 
  355000    2038.4285   -704.37036    275388.32    15.251644 
  355500    2032.5648   -694.19823    305119.39    15.117343 
  356000    1990.4711   -694.86084    299667.11    15.131699 
  356500    2052.1094   -696.10466    289057.98    15.190424 
  357000      1843.27   -695.07567    298421.92    15.147515 
  357500     1869.261   -692.34575    310223.56    15.084432 
  358000    2209.7521   -699.87098    286769.82    15.153513 
  358500    1811.2741   -698.99101    296339.87    15.156124 
  359000    2104.9555   -696.02101    300157.47    15.096046 
  359500    2037.8959   -699.07689    300002.68    15.113937 
  360000    1845.4585   -695.43782     317432.9    15.027507 
  360500    1883.3361   -699.25386    289010.39    15.168361 
  361000       2139.1   -698.95325    298856.03    15.139407 
  361500    2120.5426   -695.74846    315752.21    15.034429 
  362000    2080.0271   -698.96216    287220.31    15.201853 
  362500    1903.2319   -696.53588     302909.1    15.109987 
  363000    1822.6876   -699.94873    285812.87    15.126554 
  363500    1974.3832    -700.6978    290768.81    15.124057 
  364000    2031.9099   -693.02636     301685.9    15.121326 
  364500    2009.6429   -704.41066    290626.63    15.127043 
  365000    2018.8878   -698.94864    309808.22    15.025218 
  365500    1844.0678   -696.73866    299917.32    15.101659 
  366000    1959.3308   -698.72635    297863.62    15.090314 
  366500    2015.4576   -695.07319    312605.43    15.040425 
  367000    1972.0059   -702.32792    287622.64    15.201366 
  367500    2000.9167   -689.34956    306267.04    15.144855 
  368000    2005.9003   -703.20945    289884.57    15.175614 
  368500    2080.6292   -689.54486    317665.85    15.090236 
  369000    1864.3294   -689.49598    304820.67    15.118081 
  369500    1778.3279   -695.49018    306038.57    15.111011 
  370000    2005.8563   -688.71031    310197.77    15.119401 
  370500    1986.9486   -696.59261    302025.47    15.100349 
  371000    1842.1158   -691.89236    307434.44    15.118483 
  371500    2104.2651   -696.83607    308564.43    15.111321 
  372000    1990.0051    -697.1755     297612.8     15.14365 
  372500     2038.058    -695.4796    299888.22    15.171561 
  373000    1740.1708   -687.01058    305091.88    15.135264 
  373500    2127.9702   -696.18925    306471.53    15.104145 
  374000    2046.1299   -708.72432    279061.27    15.213344 
  374500    2023.3781   -701.44344    304467.74    15.099692 
  375000    1747.7082   -694.60211    303162.41    15.129591 
  375500    2026.9174   -698.64462    291835.47    15.172729 
  376000    1941.4465   -693.29962    310448.11    15.099027 
  376500    1937.8595   -703.02821     291087.7    15.177053 
  377000    2338.3292   -699.55659    312104.22    15.082641 
  377500    2010.1322   -699.90389    289154.02    15.196281 
  378000    1883.4871   -691.10362    318991.97    15.053138 
  378500     1831.938   -693.30663    307579.41    15.124555 
  379000    2082.0245   -698.13122    291580.97    15.176545 
  379500    1966.1239   -696.23717    296784.94    15.173648 
  380000    1946.0654    -696.7774    296969.85     15.11535 
  380500    1944.7353   -693.73649    309912.72     15.09851 
  381000    2196.0546   -706.76754    292655.73     15.13376 
  381500    2072.3096   -703.18984    289575.91    15.108928 
  382000    2110.9542   -701.04712    303610.48    14.968581 
  382500     2091.816   -699.72159    311144.42    14.951613 
  383000    1880.5471   -708.75292     291094.1    15.010049 
  383500    1993.1679   -705.21313    292485.37    15.074667 
  384000    2106.9743   -706.80991    281333.94    15.124001 
  384500    2042.9817   -695.06446    314859.89    15.028541 
  385000    2207.6207   -695.63167    300204.82    15.030023 
  385500    1942.7078   -699.59327    283733.41    15.177423 
  386000     1949.982    -689.4279    307632.17    15.099474 
  386500    1910.7243   -703.60181    281418.74    15.186401 
  387000    1899.0133   -693.35516    310900.42    15.044415 
  387500    2033.7195    -701.0724    297202.33    15.113606 
  388000      2122.69   -696.65224    294978.86    15.117472 
  388500    1915.9269   -696.94082    309280.14    15.091049 
  389000    2002.1166   -699.30831    296397.09    15.071347 
  389500    1998.2251   -700.39513    301375.31    15.084716 
  390000    2062.7104   -699.80542    282646.05    15.204292 
  390500    1994.6105   -691.40413    308761.48    15.108174 
  391000    1889.0378     -697.108    304899.32     15.06166 
  391500    1950.1656   -700.06276    296169.11     15.13847 
  392000    1924.4227   -692.37825     308600.7    15.099302 
  392500    1915.6038   -700.06584    293486.91    15.148256 
  393000    1937.9461   -698.02309     304051.9    15.073829 
  393500    2185.2228   -693.76134    301206.79    15.134819 
  394000    2092.5676   -711.59876    287457.76    15.168052 
  394500    1950.2609   -690.27184    315580.79    15.091349 
  395000    1868.9184     -694.564    293358.66    15.140345 
  395500    1911.0953   -687.91869    307399.94    15.129385 
  396000    1717.4855   -689.26487    301859.43    15.106151 
  396500    2069.4963   -712.33661    277260.21    15.174883 
  397000    1899.9629   -702.82142     303169.9    15.102344 
  397500    2174.2182   -704.20659    306709.93    15.063145 
  398000    1951.5034   -703.75149    287560.53    15.109501 
  398500    1938.3258   -694.13014    300961.18    15.093875 
  399000    1887.8467   -703.67854    298761.75    15.022244 
  399500    2163.5455   -690.11566    326860.92    15.031284 
  400000    2063.1663   -697.90719    299404.05    15.114085 
  400500    1903.9298    -696.0583    309719.78     15.02539 
  401000    1978.0837   -704.57775     300880.1    15.096712 
  401500    2057.6336   -691.79321    303966.81    15.036745 
  402000    2009.3811   -701.84135    293769.82    15.108075 
  402500    2302.0131   -701.22697    302660.92    15.047768 
  403000    2149.4745   -706.97572     292701.7    15.061606 
  403500     1982.851   -692.63258    321014.16    14.924154 
  404000    1937.0323   -697.44527    309879.85    14.951797 
  404500    1986.9069   -705.66153    297174.77    14.990309 
  405000    2020.2564   -713.60279    287796.84    14.947505 
  405500    2007.6672   -702.84013    312525.54    14.858665 
  406000    1919.4894   -706.99375    303577.73    14.862514 
  406500    2158.2708   -702.26472    307550.65    14.872634 
  407000     1894.691   -716.62182    283745.53    14.952191 
  407500    2046.6458   -701.15224    314203.88    14.954859 
  408000    1996.5458   -702.46975    303571.59     15.02784 
  408500    1923.2111   -703.20816    300030.75    15.003663 
  409000     2048.053    -711.2677    288173.02    14.960764 
  409500    1881.1969   -707.19265    303859.19    14.865631 
  410000    1866.9327   -710.05263    302785.32    14.905163 
  410500    2146.2785   -699.79394    316320.66    14.825475 
  411000    2077.9314   -701.96343    312407.75    14.893488 
  411500    1883.6356   -711.73201    281084.34     15.03347 
  412000    2010.1586   -705.29483    294662.04    14.979401 
  412500    1997.2755   -706.19859    298921.76     14.99437 
  413000    1938.9877   -703.51359    302063.65    14.960141 
  413500    1835.2289   -708.51951    285781.21    15.070443 
  414000    1965.9454   -697.03665    310828.09    14.969634 
  414500    1993.5046   -703.04691    305458.24    14.898758 
  415000    2013.9764   -706.81204    290782.62    15.073014 
  415500    1931.4266   -703.99719    290583.32    15.103055 
  416000    1985.3155   -701.91119    306059.09    15.064674 
  416500    2011.9314   -701.28758    293171.96    15.136341 
  417000    2198.6904    -691.6415    311006.29    15.107992 
  417500    2033.5506    -701.5209    293599.77    15.106244 
  418000    2174.5462   -702.36958    297912.04    15.036437 
  418500    1865.2938   -700.76647    306418.79    15.020139 
  419000    2200.7829   -708.13747    296474.14    14.986641 
  419500    2016.9693   -698.30667     310158.9    15.008264 
  420000    1900.4925   -704.08375    290944.27    15.057855 
  420500    1994.1097   -703.65056    291723.62    15.101114 
  421000    2058.0268   -699.85836    305562.81    15.057758 
  421500    2021.2608   -692.39641    296637.13    15.158353 
  422000     2062.811   -706.79243    284754.17    15.133686 
  422500    2074.1248   -688.01278    315445.84    15.043495 
  423000    2051.2104   -696.19713    293974.38    15.165812 
  423500    1996.5063   -698.58619    300750.84    15.140086 
  424000    2254.7623   -698.56069    310050.93    15.076516 
  424500    1964.5636   -701.43268    295858.66    15.080641 
  425000    1895.6578   -692.51832    300193.78    15.112092 
  425500    1987.7792   -693.79599    308468.67     15.05119 
  426000    2142.5119    -695.6279    303026.92    15.131807 
  426500    1878.4943   -701.78239    286291.38     15.15982 
  427000    2002.2951   -696.92389    313394.22    15.050049 
  427500    1865.0491   -702.27558    298325.55    15.006995 
  428000    1990.4445   -701.49363    309322.03    15.002858 
  428500    2114.4178   -695.08398     320676.1    14.933043 
  429000    2000.4696   -711.02022    274971.28     15.10345 
  429500    1824.9624    -696.8056    302853.78    15.031705 
  430000    1957.8198   -694.76476    318395.25    14.905924 
  430500    2039.3705   -708.23138       288094    15.097681 
  431000    2078.3188   -708.71282     285414.4    15.081253 
  431500    2021.5888   -699.03685    308696.62    15.066044 
  432000    1993.7895   -704.77042    284326.47     15.18211 
  432500    2101.9525    -694.1685    300935.64    15.137265 
  433000    1974.0037   -714.11264    259980.89     15.27267 
  433500    2104.4471   -695.42267    311721.34    15.072923 
  434000    1993.2645   -695.45596    298217.34     15.08332 
  434500     1995.637   -704.15111     293699.1    15.085615 
  435000    2069.1497   -700.79248    297305.09     15.09267 
  435500    2031.7232   -696.81102    301819.64    15.073114 
  436000    2000.9104   -691.41959    326076.39    15.030478 
  436500    2181.6495   -690.90516    305811.35    15.094112 
  437000     2103.857   -691.97298    306664.01    15.141576 
  437500    2008.4069   -692.29696    294799.87    15.127477 
  438000    1853.2741   -702.22939    292895.99    15.175309 
  438500    1916.0745   -696.00489    307353.42     15.13187 
  439000    2030.6537   -690.24503    310349.11    15.149906 
  439500    1997.3644   -693.26991    297210.33    15.176736 
  440000    1953.0425    -694.8719    292176.96    15.220503 
  440500    1953.6034   -690.17565    315377.11    15.121046 
  441000    2034.9028   -696.70624    296545.44    15.174819 
  441500     2037.847     -687.668     307505.3    15.129131 
  442000    2046.0727   -694.54563    300518.62    15.166979 
  442500    2140.0794   -702.33277    293767.28    15.167514 
  443000    2100.2424   -709.03633    279655.93    15.199607 
  443500    2170.4395   -688.61964    311843.77    15.107393 
  444000    2102.8596   -703.97113    301755.42    15.092306 
  444500    2057.3655   -695.75442    298375.39    15.152025 
  445000    2051.4425   -699.68492    301390.99    15.135712 
  445500    2144.3087   -695.29071    289501.27    15.222915 
  446000    1962.8167    -690.3284    310659.73    15.112422 
  446500    2002.7215    -698.7333    292139.46    15.164081 
  447000    1896.2989   -688.06431    312950.68    15.124037 
  447500    2013.0065   -700.50373    290885.54    15.174757 
  448000    1975.1183   -685.36967    312106.03    15.132907 
  448500    1939.3831   -697.65118    293492.52    15.206371 
  449000    1990.5651   -684.66139    315186.76    15.140448 
  449500    1976.6494   -696.16885    293421.78    15.197931 
  450000    2095.0752   -694.73666    297513.62     15.20339 
  450500    1859.5701   -688.92199    312414.69    15.120377 
  451000    2155.0153   -692.61644    304958.19     15.18325 
  451500    1998.2596   -700.19049    285167.57    15.241336 
  452000    1985.8199   -691.69774    291889.42    15.182695 
  452500    1907.5002   -696.22131    302520.28    15.138097 
  453000    1924.7406    -687.6983    304456.28    15.169286 
  453500    2004.9746   -693.73254    294953.69    15.196541 
  454000    1961.3416   -686.22561     315168.5    15.111222 
  454500    1939.6731    -689.7436     290717.8     15.21035 
  455000    2078.8934   -687.45874    311101.53    15.148559 
  455500    2022.2185    -694.5735    294439.46    15.199224 
  456000    1944.8728   -692.47034    300926.88    15.154523 
  456500     1894.925    -699.9639    286975.54     15.23074 
  457000    2000.0278   -699.07959    301787.93    15.139713 
  457500    1791.5604   -692.32848    304620.67      15.1316 
  458000    2074.2665   -699.36174    297156.91    15.172762 
  458500    1842.3206   -695.61916    298461.43    15.148511 
  459000    2129.3959   -698.09322    295383.52    15.174638 
  459500    2086.8297   -699.01532     298107.6    15.176874 
  460000    2123.0507   -692.15988    305643.05    15.148575 
  460500    2135.0187   -698.56407    296202.98    15.158986 
  461000    2270.7934   -685.22427    308121.06    15.155001 
  461500    2130.4036   -689.93301    300594.41    15.216757 
  462000     2208.889   -693.22576    296424.97    15.204376 
  462500     1939.259   -689.29904    306762.45    15.167797 
  463000    1941.4062   -686.16934    303172.43    15.147615 
  463500    2134.1943   -693.04871    299356.61    15.157423 
  464000    2074.6241   -689.22314    313630.09    15.144107 
  464500    2014.1447   -697.70837    284095.48    15.254412 
  465000    2024.7227   -677.71567    310066.22    15.175415 
  465500    1955.4438   -687.78349    306221.57    15.163179 
  466000    1981.3094   -695.81297       289369    15.243991 
  466500     2063.898   -683.18239    321367.43    15.089886 
  467000    2108.1018   -698.74031    294915.17    15.203892 
  467500    1960.0547   -694.90111    298707.72    15.137734 
  468000     1958.048   -702.70749    300174.43    15.154611 
  468500    1845.9067    -701.0077    293174.62    15.141467 
  469000    2039.8838   -696.64328    312895.41    15.088919 
  469500    2015.8761   -703.17526    295614.94    15.124706 
  470000    1877.3998   -706.84399    299433.87    14.945909 
  470500     1846.991   -706.66162    295057.36       14.976 
  471000    2082.3243   -705.12504    299586.13    15.036595 
  471500    2089.7237   -708.00294    290246.13    15.086855 
  472000    1909.7588   -703.02561       295942    15.061678 
  472500    2012.7804   -697.60955    310219.15     14.98733 
  473000    1848.4053   -694.22072    309389.66    14.971534 
  473500    1835.4403     -707.606    283571.58    15.074365 
  474000    1987.4886   -704.87822    302510.17    14.997465 
  474500      2010.81   -702.03622    298232.92    15.035781 
  475000    1897.6447   -706.08437     296417.1    14.976666 
  475500    2143.3788   -697.71633    301124.68    15.049958 
  476000     2044.662   -705.70182    310651.34    14.947311 
  476500    1907.0464   -703.62903    309212.64    14.965376 
  477000    1925.1686   -703.66594    293867.77    15.086276 
  477500    1933.4611   -696.56644    312334.85    14.995134 
  478000    1952.6002   -699.77788    294856.37    15.092026 
  478500    2096.2152   -709.41661    287008.32    15.101196 
  479000    2027.5405   -702.67126    300959.02    14.965676 
  479500    1950.5766   -699.22882    306931.06     15.01311 
  480000    2112.8951    -700.0799    294798.63    15.049771 
  480500    2048.3611   -694.80226    309234.68    15.095444 
  481000     2104.599   -698.27087    298814.52    15.083343 
  481500    1991.3587   -708.98083    282036.85    15.118512 
  482000    1869.1256   -702.51733    291722.14    15.123791 
  482500    1858.4141   -698.69986    294968.02    15.171177 
  483000    1905.8886   -689.42014    313438.45    15.105343 
  483500    2166.4113   -697.75044    298712.87    15.156134 
  484000    2047.0429   -698.15345    311496.24    15.089383 
  484500     2005.301   -699.44566    291710.21    15.193866 
  485000    1969.4926   -693.50386    294449.27    15.120864 
  485500    2340.9002   -695.84001    312193.53    15.131219 
  486000    2127.9777   -698.92629    297510.81    15.147622 
  486500    1964.5774   -689.71056    298723.49    15.163526 
  487000    2066.6011   -692.36378    296227.99    15.190616 
  487500    1914.4552   -697.10963    297103.45    15.138758 
  488000    2124.0673   -694.56474    311258.56     15.08381 
  488500    2169.4646   -701.15571    286225.64    15.199549 
  489000    2188.9363   -697.86678    299778.06    15.120172 
  489500    2099.3903   -704.59033    287204.46     15.18988 
  490000    1915.0068   -703.49723    296401.69    15.127354 
  490500    1989.9756   -700.86967     307131.6    15.040491 
  491000    2064.8209    -707.2251    288948.75     15.01904 
  491500     1775.975   -701.62344    309650.71    14.983087 
  492000    2120.0827   -705.15908    288705.81    15.091144 
  492500    1929.9795   -692.89535    314472.62    15.022692 
  493000    1900.9664   -704.95554    296740.37    15.002831 
  493500    2096.4037   -691.48865    327851.15    14.943477 
  494000    2000.1224   -703.05943    293460.61    15.024983 
  494500    1849.9451   -705.66177    285149.07    15.034247 
  495000    2073.4429   -703.65677    307134.78    14.938962 
  495500    2084.7966    -706.9182    286748.63    15.061741 
  496000      2040.44   -705.46946    305683.15    14.998261 
  496500    1769.1518   -693.81818    303934.08    15.069044 
  497000    1864.9117   -699.50366    291130.26    15.126777 
  497500    2139.0371    -694.8062    299668.42    15.077862 
  498000    1880.4563   -700.45025    290093.48    15.125141 
  498500    1957.0396   -699.82093    288337.42    15.123984 
  499000    1866.4903   -697.31422    296215.49    15.087276 
  499500    2122.8304   -705.58803    289571.65    15.113892 
  500000    2004.9381   -690.81486    314337.07    15.048044 
  500500     2026.067   -689.99851    304630.02     15.09828 
  501000    1996.3565   -701.93705    299569.84    15.104268 
  501500    1954.2144   -694.95246    314084.87    15.026151 
  502000    1961.6415   -715.03425    274040.59    15.131168 
  502500    2064.9964   -698.06631    307275.14    15.000437 
  503000    2070.9787   -687.77897    313619.04    15.026316 
  503500    1900.8886   -708.12951    273639.44    15.152873 
  504000    2126.8957   -692.70676    307079.95    15.085889 
  504500    2112.3569   -700.51847    290288.31    15.116195 
  505000    2014.5161   -699.28739    302649.56    15.115392 
  505500    1909.0548   -706.04013    284236.05    15.189152 
  506000    1985.9747   -695.80424    306190.69    15.124758 
  506500    2085.4297   -697.69541    290960.14    15.202069 
  507000    1933.6355   -697.54197     298501.6    15.204458 
  507500    1922.2089   -687.14455    307959.11    15.149498 
  508000    2067.8023   -696.05232     291530.8    15.214469 
  508500    2049.6065   -690.17212    309153.09    15.157394 
  509000    1953.6745    -695.1874    293907.52    15.189049 
  509500    2128.1215   -691.42307    292490.15    15.211384 
  510000    1925.5662   -690.38769     303280.5    15.177364 
  510500    2019.9586   -684.48139    322870.96    15.111485 
  511000    2044.7419   -694.83852    289779.02    15.204245 
  511500    1938.5441   -691.83642    313362.32    15.106741 
  512000    1946.3682   -695.09924    291590.53    15.207668 
  512500    1788.6925   -693.65582    293746.17    15.183497 
  513000    1984.1582   -684.56516    317356.67    15.140864 
  513500    1948.8202   -703.73382    278514.68     15.23916 
  514000    2076.2029   -694.84024    300762.37    15.166468 
  514500    2149.3166   -694.06002    300660.01    15.176858 
  515000    1946.8041   -697.40373    289626.48    15.202032 
  515500    2144.5718   -691.66655    303237.82    15.160215 
  516000    2042.3301   -692.75342       284184    15.282415 
  516500    2254.0457   -690.59048    319062.33    15.129613 
  517000    1928.2475   -692.68193    296958.05    15.204709 
  517500    2131.5124   -687.90163     300966.1    15.205106 
  518000    2108.2486   -693.51759    306593.93    15.171626 
  518500    2004.3117   -693.16113    292853.47    15.226216 
  519000    1969.1699   -687.25675    307455.99    15.155216 
  519500    2029.1742   -690.33085    298029.54    15.173772 
  520000    1978.2533   -697.05587    296811.52    15.194682 
  520500    2236.0973   -687.82497    304500.05    15.212768 
  521000    2126.8585   -681.83164    321084.21    15.126901 
  521500    1953.3282   -692.92088    284871.25    15.241585 
  522000    1874.8608   -679.58689    326285.97    15.105634 
  522500     1990.174   -695.90897    296624.03    15.207078 
  523000    2176.8435   -687.49355    312136.84    15.153988 
  523500    1895.7984   -688.72522    309156.59    15.131218 
  524000    1947.6417     -691.183       291398    15.193836 
  524500    2080.4321   -694.12814     314481.5    15.122437 
  525000    2052.2623    -697.3076    301135.17     15.18011 
  525500    1932.6326   -690.28682     301973.6    15.162474 
  526000    2143.5051   -689.10886    305042.52    15.169219 
  526500    1939.0459   -692.82565     301738.2     15.16594 
  527000    1972.3946    -700.1685    290547.66    15.203761 
  527500    1939.1026   -694.84236    307062.55    15.142491 
  528000     1868.144   -698.62161    283140.64    15.196803 
  528500    1915.6507   -690.32641    317065.17    15.079521 
  529000    1946.0589   -694.20395     300969.1     15.10864 
  529500    2032.3969   -704.93885    298511.52    15.052864 
  530000    1958.3698    -701.8776    292168.92     15.07732 
  530500    1969.1731   -708.45613    283003.95    15.166352 
  531000    2113.8617   -698.04928    305002.15    15.134104 
  531500     1976.867   -701.47891    298553.78    15.138128 
  532000    1975.5429   -701.60579    290585.58    15.184439 
  532500    2010.5904    -693.4282    299321.05    15.149522 
  533000    1899.8501   -692.15728    303871.65    15.128621 
  533500    2087.7275    -691.7328    286803.18    15.194407 
  534000    1926.6836   -701.19713    297331.79     15.12931 
  534500    1950.8411    -701.1889    293143.74    15.152976 
  535000    2296.0443   -702.64582    304334.34    15.142398 
  535500    2007.6143   -688.86586    306498.19    15.132194 
  536000    2050.7248   -694.18864    284031.21    15.246585 
  536500     2021.918   -689.29551    315740.39    15.119272 
  537000     1989.441   -701.59029     287849.8    15.198034 
  537500    1877.0988    -691.3565    299751.67     15.17256 
  538000    1939.4333   -689.56055    300349.56    15.173341 
  538500    2028.8529   -690.82353    290459.64    15.224429 
  539000    1910.9945   -691.57033    301681.34    15.157209 
  539500    2020.3381   -692.08367    299053.19    15.179294 
  540000    1947.1786   -697.90951    298360.81    15.129981 
  540500    2028.8396   -696.56138     287799.3    15.198702 
  541000     1936.455   -681.28458    319252.19    15.067247 
  541500    1724.4071   -701.64552    284908.36    15.121951 
  542000    2053.1359   -694.07172    315900.51    15.032002 
  542500    2046.3628   -715.11803    272732.69    15.205757 
  543000    2057.7202   -699.74489    285894.51      15.2025 
  543500    2020.6569   -692.50029    308755.95    15.087981 
  544000    1881.7463   -696.35727    293424.47    15.157415 
  544500    2052.8491   -702.06461    289079.98    15.099129 
  545000    1845.3211   -697.54256    302237.81    15.106972 
  545500    2162.3454   -693.37409    315706.86    15.048201 
  546000    1946.9565    -702.9766     289312.1    15.159098 
  546500    1800.2476   -693.07751    303703.41    15.058694 
  547000    1853.4794   -692.60101    312462.18    15.012183 
  547500    1960.1998   -703.88941    289572.05    15.140506 
  548000    2003.9901   -694.04854    304445.46    15.144771 
  548500    1980.3382   -697.77895       294640    15.113464 
  549000    2003.1566   -691.66826    305465.76    15.058678 
  549500    1878.0383   -710.67023    279821.76    15.117193 
  550000    2071.1684   -701.69823    290404.99    15.065197 
  550500    2043.1282   -700.86334    291334.48     15.11185 
  551000     2072.457   -700.35254    300839.35     14.97028 
  551500     1971.927   -716.38248    271498.15    15.118269 
  552000    1934.2051   -706.60155    293942.68    15.026708 
  552500    2149.9108   -698.93383     310653.8    14.963253 
  553000    1975.9755   -706.07821    304666.48    14.946254 
  553500    2152.1198   -690.02671    322827.32    14.923479 
  554000    1901.1184   -705.36564    291142.06    15.033936 
  554500    2109.3086   -708.17529    296881.77    14.887306 
  555000    2056.0931   -704.80036    310182.36    14.854013 
  555500    2091.6946   -709.88919    296222.15    14.896604 
  556000    2249.9799    -700.6043    322370.57     14.84323 
  556500    1946.2415   -710.58389    286908.94    15.010652 
  557000     2044.307   -701.61124     304977.8    15.034486 
  557500    1963.9749   -695.54204    306589.43    15.088144 
  558000    2177.1349   -694.93661    309622.63    15.073584 
  558500     1920.482   -698.54155     298249.8    15.154598 
  559000    1964.4165   -701.11076    298858.03    15.136642 
  559500    2027.1616    -695.2388       302643    15.175017 
  560000    2005.0695   -694.13317    294847.52    15.189844 
  560500    2032.9817   -689.74734    305105.58    15.152447 
  561000    1963.9215   -688.32038    305322.52    15.145525 
  561500    1905.6388   -689.16471    310013.42    15.119883 
  562000    1955.9361   -691.05447    303732.16    15.135439 
  562500    2154.1142   -696.56754    302161.64    15.103723 
  563000    2014.4578   -692.03561    301266.96    15.127443 
  563500    1830.7622   -687.47253    308379.14    15.101395 
  564000    2114.3545   -702.83705    297426.31    15.041404 
  564500    2040.2083   -701.28174    315358.49    14.964265 
  565000    2020.9237   -699.99579    302706.29    15.062594 
  565500    2230.4974   -700.49425     303528.3    15.098729 
  566000    1964.0576   -704.10047    304352.23    15.093139 
  566500    1860.5937   -702.30581    291235.19    15.131049 
  567000    2057.5797    -698.7826    300183.93     15.08426 
  567500    1950.3067   -685.58712    330987.66    15.003693 
  568000     1851.628   -699.26629    295921.06    15.126649 
  568500    2050.8953   -692.55135    305907.23    15.105241 
  569000    1921.0132   -693.16899    299576.01    15.104299 
  569500    1872.2811   -703.41315     290489.2    15.100726 
  570000    2021.1598   -700.53861    295508.03     15.14951 
  570500    1991.5536   -698.57662     300180.6    15.099625 
  571000    1857.3751   -696.66205    303226.21    15.068758 
  571500    1941.1656   -690.60127    317290.57    15.014661 
  572000    2040.3143   -691.06395    305804.49    15.047143 
  572500    1719.7451    -702.2149    282438.94    15.173707 
  573000    2066.8966    -698.2112    301135.13    15.083592 
  573500    2018.8948   -704.07167    293521.57    15.148402 
  574000    1938.6855   -699.52653    303548.76    15.046652 
  574500    2061.5138   -703.57085    287249.97    15.143121 
  575000    2090.6019   -690.15753    307763.97    15.087979 
  575500    1891.8108   -697.58374    297349.31    15.108204 
  576000    1854.1304   -698.24471    295320.93    15.112389 
  576500    1977.4523    -695.4575    307191.43    15.096057 
  577000    2191.5748    -698.2564    295720.75     15.10084 
  577500    2007.4095   -720.48987    257755.88    15.192983 
  578000    1966.2802   -705.30954    289055.92    15.060739 
  578500    2021.7807   -703.90587    302032.65    14.996876 
  579000    1988.5545   -699.34765     301020.5    14.977464 
  579500     2015.246   -705.80533    309175.72    14.851593 
  580000    2079.8883   -695.95402     308949.2    15.004138 
  580500    1900.1344   -708.46024    279312.65    15.128899 
  581000    1970.8778    -696.7063    316433.44    15.030118 
  581500    1917.9671   -699.70352    294325.31    15.109346 
  582000    2029.1981   -687.08458     310750.9    15.039271 
  582500    2067.8681   -709.44275    280890.98    15.163594 
  583000    1912.0249   -694.27179     312690.9    15.044137 
  583500    2002.9773   -695.94874    299987.18    15.080464 
  584000    1967.0118   -711.39752     272804.1     15.14884 
  584500    1900.8789   -690.10092     303256.7    15.119308 
  585000    2102.2544   -695.40283    300691.52    15.137974 
  585500    1953.3959   -694.68535    303564.87    15.104405 
  586000    1899.1181   -711.30688    281045.13    15.189817 
  586500    2030.7366   -697.12362    302616.96    15.048199 
  587000    2027.1366   -698.48924    297053.65    15.036159 
  587500     2118.732   -704.51854    297886.06     15.09583 
  588000    1908.6898   -697.71874    287296.69    15.164297 
  588500    1858.8713   -695.42729    314102.14    15.044101 
  589000    2025.5744   -704.80675    290762.46    15.157439 
  589500    1956.9672   -697.69811    300568.43    15.155596 
  590000    2013.4778   -699.75145    296812.59    15.134749 
  590500    2048.4753   -697.49614    295953.82    15.167699 
  591000    2014.7418   -693.32589    299138.62    15.151679 
  591500    2055.7055   -693.71789    308905.25    15.145935 
  592000    2083.6884   -699.52824    288467.16    15.186847 
  592500    2057.2479   -693.24093    314003.83    15.076109 
  593000    1887.5585   -698.79546    301464.61     15.09132 
  593500    2101.5036   -704.33357    281277.17    15.201449 
  594000    2223.9597   -701.13336    289363.43    15.181831 
  594500    2021.1818   -690.94512    314486.78    15.041793 
  595000    1988.0461   -702.19612    301563.51    14.955058 
  595500    2182.9707   -707.38084    304782.04    14.951282 
  596000    2145.1981   -699.48159    306228.82    14.930488 
  596500    1984.0872   -699.82234     312139.3    14.910398 
  597000    2010.3159   -701.92867    307096.83    14.964636 
  597500    1878.1428    -709.1028    290728.79    15.008906 
  598000    1843.9633   -704.04599    292299.21    15.066476 
  598500    1986.5146   -696.16707    309877.39    15.072279 
  599000     2045.315   -698.18033     303351.9    15.095351 
  599500    2001.6068   -697.36804    300821.79    15.130084 
  600000    2061.1739   -697.50596    295145.43     15.11428 
  600500    1999.0564   -697.51665    303812.69    15.091172 
  601000    1961.1325   -705.90734    293127.45    15.110222 
  601500    2025.1875   -703.30489    284725.84    15.166057 
  602000    2022.3106   -690.20634    316008.64    14.994641 
  602500    1902.9464   -699.21667    291785.51    15.116133 
  603000    1787.7993   -693.15908    306740.55     15.07816 
  603500    1776.8318   -705.85618    287701.67    15.067269 
  604000    2065.9797   -692.43905    313781.77    15.002325 
  604500    2084.6809   -701.92297    301079.74    15.029214 
  605000    2147.7948   -693.06609    309780.99    15.089358 
  605500    2121.8467   -698.01646    298938.54    15.083517 
  606000    1986.5492   -701.20607    300269.85    15.072066 
  606500    1946.8282   -700.84183    293607.39    15.058504 
  607000    1941.9413   -692.51872    311381.65     15.06338 
  607500    2029.9927   -696.33108    303388.94     15.14508 
  608000    2102.2419   -696.88524    296109.37    15.163607 
  608500    2150.8931   -684.75201     323999.2    15.058068 
  609000     1947.438   -703.18848    295498.68    15.124687 
  609500    1889.4649   -693.62468    301163.65     15.15995 
  610000    2352.8596   -699.54499    297908.21    15.133953 
  610500    1971.9236   -689.95086    320325.11    15.025163 
  611000    1997.7708    -706.2629    295799.54     15.14182 
  611500    2097.2847   -701.68042    301200.22     15.14441 
  612000    1855.4397   -689.98659     298348.6    15.178766 
  612500    2014.0689    -688.2407    296333.09    15.186786 
  613000    2077.2048   -697.53528    294067.11    15.183482 
  613500    1902.6375   -697.31975    297698.89    15.124076 
  614000    1799.9844   -694.15415    313186.69    14.993738 
  614500    2232.6638   -706.00451     291582.6    15.092871 
  615000    1911.5203   -709.55665    294623.33    14.890648 
  615500    2128.9701   -701.61603     307626.7    14.995112 
  616000    1708.8677   -695.83771    298255.56    15.050108 
  616500    1950.8655     -703.682    306934.52    14.949872 
  617000    2122.4154   -716.18308    275843.47    15.046841 
  617500    1819.9585   -704.19999    298580.79    15.055921 
  618000    1985.8013   -707.67431    290466.33    14.984771 
  618500     1990.608   -702.00881    295226.26    15.001034 
  619000    2058.5574   -709.87405    290187.78    15.037158 
[...]
22260000    1998.0276   -702.67793    292757.97    15.166108 
22260500    2094.6739   -696.15077    303782.13    15.137693 
22261000    2248.2814   -693.25986     310979.8    15.091761 
22261500    2012.7842   -693.28455    292267.05    15.167659 
22262000    1942.0377   -695.09445     304544.3    15.115663 
22262500    2107.0381   -697.97922     292479.5    15.151414 
22263000    2027.8989   -693.62368    293916.98    15.194897 
22263500    1950.9662   -694.98463    296863.86    15.143479 
22264000    2014.8973   -692.15303       309580    15.100692 
22264500    1935.5431   -700.00511    295936.69    15.169591 
22265000     2329.837   -694.24181    303348.07     15.12231 
22265500    1832.4058   -705.89783    287458.88     15.19018 
22266000    2047.8324   -677.02967    331052.93    15.032821 
22266500    1815.9228   -697.97751    290483.03    15.153057 
22267000    2091.7568    -705.7524    293199.68    15.098172 
22267500     2011.089   -696.81001    297122.16    15.103554 
22268000    1989.0982    -704.5669    293085.34    15.146625 
22268500     1940.262   -691.25141     310160.2    15.086823 
22269000    2096.7853    -698.3722    307768.08    15.030359 
22269500    2073.5907    -702.3989    293672.25    15.120056 
22270000    2068.8236   -687.46416    322670.24    14.962736 
22270500     1937.974   -688.41545    321032.77    14.994641 
22271000    2056.6702   -694.57626    319304.19    14.945181 
22271500    1962.6882   -700.08931     305857.1    15.083336 
22272000    2047.5886    -700.1312    301095.76    15.057205 
22272500    2098.2055    -688.3782    303533.17    15.119113 
22273000    2027.5899   -696.80169    302217.03    15.131045 
22273500    1981.4832   -697.73506    298042.88    15.153121 
22274000    2057.9886   -688.86627    304778.71    15.146606 
22274500    1982.0686   -697.08291    300111.14     15.11928 
22275000    2110.7658    -692.0159    318943.17    15.058331 
22275500    1867.0747   -700.37832    291796.88    15.120922 
22276000    2038.8238   -703.94786    294590.64    14.980289 
22276500    2164.8156   -708.76031    292532.25    14.956034 
22277000    2055.5068   -700.65811    308317.28    14.890645 
22277500      1839.73   -697.79511    301891.25    15.028953 
22278000    1939.6892   -700.61487    291148.53    15.066771 
22278500    2059.0406   -697.18439    305305.33    15.088652 
22279000    2027.4541   -703.13058    290421.53    15.126328 
22279500    1845.0086   -697.26654    312748.94    15.037431 
22280000    1983.5438   -699.58695    301687.63    15.098891 
22280500    1904.2612    -698.6859    297784.46    15.075312 
22281000    2075.4748   -697.58453    301152.97    15.106148 
22281500    2082.9028   -706.49326    282287.46    15.116596 
22282000    1993.0728   -702.20784    291293.44    15.060726 
22282500    1884.1741   -700.68252    295454.27    15.045129 
22283000    1977.4368   -699.24673    306600.27     14.94619 
22283500    1927.4932   -697.66832    308687.72    15.010456 
22284000     2011.914   -699.89834    314252.09    14.952926 
22284500    2006.3766   -707.14324    276797.02    15.132554 
22285000    2061.4775   -703.44906    303786.17    14.990231 
22285500    1945.9415   -702.61821    303866.09    14.950978 
22286000    1908.7772   -701.15789    289545.62    15.096588 
22286500    1887.4587   -684.31901    319727.28     15.01167 
22287000     2029.864   -707.08771    289916.27    15.118261 
22287500     2138.749   -712.51373     288023.1    15.101805 
22288000    2125.5032   -701.89713    305983.81    14.971424 
22288500    1981.0296   -697.38586    297573.26    15.058329 
22289000    1993.1478    -697.7854    315351.05    14.973291 
22289500    1943.4194    -707.0092    273322.13     15.16282 
22290000    1971.2707   -699.20807    300947.67    15.072992 
22290500    2082.7966   -691.87756    313772.88    15.037706 
22291000    1979.6066   -696.77184     294061.2     15.10783 
22291500    1996.4597    -693.4144    303934.18    15.084416 
22292000    1890.6955   -686.76864    309335.27    15.086676 
22292500    2184.4416   -702.06091    287666.01    15.191142 
22293000     2215.936   -693.63179    307966.34    15.072621 
22293500    1934.0848   -695.32658    290286.53    15.161919 
22294000    1946.2473   -692.58918     304325.7    15.110344 
22294500    1914.2051    -702.0821    296802.71    15.127812 
22295000    1809.1296   -699.21291    303423.65      15.0965 
22295500    2001.5823   -699.82187    297319.54    15.149882 
22296000    1877.4067    -693.9696    302695.86    15.114508 
22296500    2102.0309   -698.72863    300992.06    15.121454 
22297000    1996.3168   -697.51985    282996.37    15.210343 
22297500    2109.6416   -693.91725    307775.24    15.076494 
22298000    2004.2164   -693.02883    307772.07    15.069794 
22298500    2111.2591   -701.30805    282241.55    15.184428 
22299000    1988.3219   -687.70715    310082.46     15.09357 
22299500    1929.9357   -710.37537    277309.18    15.176321 
22300000    1886.5152    -685.4876    305424.88    15.083355 
22300500    1966.8641   -696.87858    290358.16    15.162203 
22301000    2058.8406    -699.2458    302063.81    15.131152 
22301500    1898.7299   -687.96625    302735.64    15.068998 
22302000    2116.1399   -697.63716    305321.57    15.122956 
22302500    1876.2553   -707.53275    290712.28    15.052135 
22303000    2090.1371    -713.2371    285903.11    15.041146 
22303500    1920.9083   -697.45323    303348.81    15.091429 
22304000    2022.7412    -708.0311    281476.58    15.147485 
22304500    2030.4263   -694.25043    313247.52    15.061537 
22305000    2007.4642   -704.59425    293506.85     15.05217 
22305500    1877.3123   -695.58609     314252.8    14.994164 
22306000    2052.1027   -705.11689    297791.74    15.043904 
22306500    2073.5308   -703.66875    299432.08     15.03871 
22307000    1998.2341   -695.65723    308008.55    15.012574 
22307500    2156.8058    -711.2565     281313.3     15.07588 
22308000    1919.0364   -704.14906    290139.24    15.119138 
22308500    1874.7958   -679.80596    316227.29    15.076007 
22309000    2081.1441   -697.53794    290748.37    15.164695 
22309500    1986.1685   -691.24021    305582.48    15.132491 
22310000    2146.0534   -696.95489    291261.08    15.158631 
22310500    2060.9186   -698.84496    299452.42    15.130869 
22311000    2058.9468   -702.33315    295615.02    15.153576 
22311500    1879.0241   -685.40105    310218.66    15.084419 
22312000     2008.296   -684.88837    308810.06    15.066685 
22312500    1995.3742   -700.89867     291696.7     15.06571 
22313000    1922.8713   -697.49779    298578.71    15.099943 
22313500    2137.1233   -702.18916    294018.73    15.133843 
22314000    1678.7525    -693.5666    305271.49    15.098727 
22314500    2003.4298    -704.5592    281989.42    15.153041 
22315000    2076.8076   -692.45967    310973.57    15.085297 
22315500    2246.6503   -694.48642    301653.43    15.141748 
22316000    2019.4402   -693.96665    299181.38    15.182642 
22316500     2037.502   -691.44075    307465.61    15.115863 
22317000    1893.6006   -690.15907    308623.96    15.089852 
22317500    2043.5579   -694.50155    303308.58    15.110715 
22318000    2050.8433   -698.31569    295614.22    15.151451 
22318500    1981.2424   -693.04988    311522.19    15.117382 
22319000    1959.3795   -703.14365    302501.78    15.104866 
22319500    2195.4456   -696.42467    300338.84    15.130941 
22320000     2035.981   -692.55126       303448    15.143538 
22320500    1909.8385   -698.67518    294597.71    15.120758 
22321000    2080.2823   -694.95134    303419.33    15.104103 
22321500    1969.7559   -705.37238    270953.08     15.24878 
22322000    2042.7324   -705.43411    295639.29    15.101318 
22322500    2114.6236   -694.04713    299512.49    15.071991 
22323000    1888.1733    -694.3763    303060.02    15.130669 
22323500     1969.613   -702.13337    287761.55    15.194799 
22324000    1808.6261   -688.21393    310645.06    15.068633 
22324500    1807.8637   -703.87023     282332.8    15.196007 
22325000    2181.4543   -702.67165    294315.54    15.122875 
22325500    2021.4698   -687.11183    310142.22    15.092042 
22326000    1803.0211   -694.29442    292417.13    15.204337 
22326500    2131.1852   -688.23321    306223.88    15.137314 
22327000    1891.6431   -697.59455    296007.31    15.159014 
22327500    1955.9801   -707.44744     282444.8    15.187493 
22328000    2099.3324   -697.00376    311781.53    15.043976 
22328500    2069.3551   -702.78426    293327.78    15.080533 
22329000    2240.1774   -697.19862     303844.4    15.065829 
22329500    1785.7791   -699.79551    284290.35    15.166168 
22330000    2120.5061   -692.90386    313950.43    15.053574 
22330500     1972.153   -693.25493    303252.87    15.086773 
22331000    2001.2463   -693.61503    305060.55    15.100594 
22331500    1995.8097     -710.768    275427.62    15.206223 
22332000    1872.4577   -687.52891    324487.21    15.020709 
22332500    2042.7156   -696.31518    293425.71    15.153383 
22333000    2202.9832   -690.38696    305888.83    15.069698 
22333500    2146.5571   -700.63019    291677.28    15.147278 
22334000    2236.7884   -690.25137    307142.29    15.115558 
22334500    2073.5678   -701.66962    292585.72    15.156437 
22335000    1921.7334   -696.26757    299360.19    15.117254 
22335500    2063.8082   -692.49816    317697.58    14.995357 
22336000    2016.2271   -702.90063    299531.65    14.993705 
22336500    1851.7683   -703.42758    295485.07    15.040239 
22337000    2073.7892   -714.17248    289610.21    14.926676 
22337500    1946.3647   -701.93359    304952.85    14.867142 
22338000    2035.1627   -704.18064    313042.87    14.829283 
22338500    1758.4555   -706.91648    290255.56    15.009879 
22339000    1947.4206   -715.50776    287419.91    14.930682 
22339500    2004.9492   -706.94611    308422.64    14.822641 
22340000    1909.8586   -709.05436    302842.21     14.92252 
22340500    1816.8422   -697.04951    301839.81    15.012009 
22341000    1894.5965   -703.86632    286734.66    15.143904 
22341500    1982.9883    -696.6157    288893.67    15.145263 
22342000    1972.1422   -689.93155    309620.93    15.067133 
22342500    1938.1939   -696.41309    302594.18     15.09194 
22343000    1858.8123   -696.57445    299306.08    15.141093 
22343500    2011.2336   -684.52954     317679.6    15.037657 
22344000    2119.7718   -699.31023    291814.22    15.145743 
22344500    1922.1056   -696.35074    303181.52    15.114468 
22345000    1758.0523   -703.47437    290593.08    15.121311 
22345500    1892.1018   -697.23665    303108.34    15.074203 
22346000    2036.9432   -689.18357    311471.33    15.070559 
22346500    2007.3674   -694.58894    305279.03     15.09267 
22347000    1992.2166   -680.95175    321583.05    15.058168 
22347500    1866.1302   -707.63214    271786.78    15.176513 
22348000    2079.4155   -701.98485    304053.95    15.040893 
22348500    2076.6192   -695.71373    308312.36    15.106543 
22349000    1910.0537   -705.35182    291180.12    15.154373 
22349500    1909.7212   -701.42563    295938.39    15.138504 
22350000    1862.1336    -704.3232    295407.57    15.124442 
22350500    1773.9633   -694.71811    300980.58    15.104716 
22351000    2104.5406   -698.85872    297012.72    15.167568 
22351500    2034.9315   -691.06898    315089.77    15.090503 
22352000    2062.0461    -708.5628    274551.76       15.199 
22352500    1958.7087    -694.3437    302802.67    15.113846 
22353000     2198.625   -696.05756    301125.15    15.147465 
22353500    2218.5764   -697.77445    286558.06     15.17124 
22354000    2030.9082   -690.34301    307528.15    15.114322 
22354500    1965.7064   -693.22261       300366    15.131985 
22355000    2018.2394   -698.81297    303281.34    15.120168 
22355500    2038.8386   -707.92036    300254.57    15.022732 
22356000    2199.1099   -708.87401    288985.48    15.006065 
22356500    1869.9565    -713.0553       281818    15.126642 
22357000    1949.4205   -705.40372    302444.38    14.930621 
22357500    2000.9159   -705.27884    304362.19     14.95139 
22358000    1940.2723   -707.64767     297545.4    14.904086 
22358500    2025.1582    -706.1008    301909.16     14.98929 
22359000    2079.9386   -700.24831    300994.36     15.05438 
22359500    1786.5213   -707.98146    278227.78    15.082626 
22360000    1940.7006    -695.5823    300612.36    15.034871 
22360500    2163.9358   -701.13768    301956.46    14.970937 
22361000     2318.225   -694.55459    317995.78    14.946247 
22361500    2027.7525   -699.58699    302757.43    15.040048 
22362000    1774.7816   -698.21853    305224.03    15.047992 
22362500    1935.7236   -695.58973    306984.76    15.085907 
22363000    2076.3083   -699.01871    295765.44    15.162973 
22363500    2089.8396   -702.72633    289856.05    15.178382 
22364000     2075.852   -695.26336    304822.36    15.094349 
22364500     2070.761   -700.94142    303558.01    15.095331 
22365000    2073.3735   -696.27223    287657.54    15.178057 
22365500     2016.877   -690.16626    303600.02    15.131275 
22366000    2065.0031   -693.90867    310197.27    15.102395 
22366500    1956.9631    -713.0107    270014.66    15.224534 
22367000     2064.638   -690.95034    310713.54    15.067804 
22367500    2049.6251   -698.66616    301821.16     15.00769 
22368000    2028.0016   -702.91813    285957.61    15.064072 
22368500    2201.7408   -696.62268    300866.36    15.049956 
22369000    2037.9785   -709.34416    303871.82    15.000791 
22369500    1893.6357   -701.02054    304335.92    14.929214 
22370000    2166.4227   -699.98646    314793.59     15.01481 
22370500    2063.2543   -699.78939    306045.56    15.050513 
22371000    1800.8775    -703.3939    287589.15    15.112853 
22371500    1998.1953   -700.92043    306921.06    15.007955 
22372000    1949.0621   -704.15202    285662.71    15.127579 
22372500    2020.8366   -699.94422    293242.79    15.163044 
22373000    1905.5326   -687.25637    321164.65    14.990637 
22373500    2182.9833   -705.46658    292138.68    15.091863 
22374000    1957.4741   -710.21164    278912.23    15.166797 
22374500    1941.1774   -695.47909    306538.71    15.082177 
22375000    2055.4995   -700.75259    287769.78    15.102433 
22375500    1841.7416   -691.94185    309004.74    15.069575 
22376000    2134.2223   -700.62365    300769.21    15.080113 
22376500    2182.3877   -705.21256    299327.45    15.098637 
22377000    2012.5151   -704.78699     292055.7    15.124395 
22377500    2080.8439   -702.67255    301582.43    15.040917 
22378000    2108.5234   -689.32749     312966.3    15.059617 
22378500    1896.1943   -708.75201    273043.34    15.241511 
22379000    1985.0408   -695.90394    310464.55    15.085545 
22379500    1932.4237    -700.2853    291859.85    15.139982 
22380000    1958.2328   -705.46806    286489.66    15.175069 
22380500    2005.4755   -685.11203    316036.47    15.055638 
22381000      2022.94   -698.38896    296917.27    15.097381 
22381500    2083.3213   -704.80806       287807    15.180131 
22382000    2101.7019   -698.21367     308257.5    15.067661 
22382500    1916.8779   -693.14392    314795.76    15.005345 
22383000    1899.5802   -700.66689    295195.02     15.09719 
22383500    1883.1338   -699.50789    292420.77    15.031807 
22384000    1915.2278   -699.17507    307307.79      15.0253 
22384500    2149.8676   -696.60089    312967.62    15.006965 
22385000    1931.6128   -699.97811    303801.19    15.025065 
22385500    1981.8038   -710.93734    290874.65    15.137722 
22386000    2005.9304   -679.69234    325631.22    15.026196 
22386500    2010.5217    -695.4572     296108.1     15.15494 
22387000    1947.2884   -699.29648    297726.05    15.105917 
22387500    2004.8144   -689.06714    307965.82    15.103614 
22388000     1846.733   -698.08703    302192.94    15.084014 
22388500    1999.0782   -693.94757    312301.22    15.095366 
22389000    2097.6268    -705.1503    290675.93    15.145825 
22389500    1908.1855   -688.15988    330004.07    14.912736 
22390000    2157.2638   -702.87324    305086.01    14.970279 
22390500    2130.3535   -706.28942    300721.88     14.96627 
22391000    1943.1265   -701.60814     297524.5    15.045434 
22391500    2067.6575   -693.15561    305042.28    15.063177 
22392000    2050.7753   -698.96848    313585.58    15.021127 
22392500     2040.305   -705.20158    286358.35    15.069175 
22393000     1944.859   -691.24793       307969     15.04664 
22393500    2136.8497   -693.68197    304305.34    15.086521 
22394000    1947.2429    -697.6546    292500.06    15.140361 
22394500    2138.7185    -692.1022    313662.18    15.031141 
22395000    1950.4985    -694.4503    289437.15     15.19496 
22395500    2080.1405   -691.17452    307229.62    15.086948 
22396000    1956.2798   -704.17776     288902.2    15.149334 
22396500    1936.6746   -705.33812    288629.48    15.148735 
22397000    2013.3561   -696.28513    314651.21    15.046379 
22397500    1793.0475   -698.15454     292872.3    15.117788 
22398000    2149.3112   -687.32475    315080.92    15.076979 
22398500    1786.9931    -698.2726    293482.15    15.184487 
22399000    1992.0809   -690.42975    303123.78    15.151151 
22399500     2093.668   -694.80739    302693.25    15.166364 
22400000    1853.4423   -694.88199    297968.27    15.159838 
22400500    1987.9181   -695.04433    305505.74    15.134677 
22401000    2126.0045   -693.20215    304028.72    15.167126 
22401500    1812.6549    -691.2692    291951.74    15.211934 
22402000    2019.9204   -683.41196    311686.17    15.150404 
22402500    1893.6218   -691.25304    307740.08     15.17948 
22403000    1993.4958   -692.05863    295515.48    15.221351 
22403500    2188.2286   -692.81149    296739.67    15.204168 
22404000    2122.2331   -693.83664    311543.59    15.144767 
22404500    1951.3908   -702.73102    286386.62      15.2435 
22405000    1945.4113   -686.42359    310700.48    15.130095 
22405500     1842.572   -695.55515    295062.05    15.194346 
22406000     1919.871   -682.52657       307412    15.164626 
22406500    2036.7075    -690.7378    297285.92    15.211309 
22407000    2029.7992   -687.93004    309421.82    15.159841 
22407500    2129.2044    -704.5431    277898.07    15.241944 
22408000    1924.0263    -696.6954    301004.17    15.109006 
22408500    2008.2354   -695.58139       305428    15.049497 
22409000    1887.2681   -699.35241    297285.23    15.089629 
22409500    2173.7444   -696.77164    311818.13     15.04371 
22410000    1923.2939   -705.65537    283525.49    15.125399 
22410500    2010.5711   -712.39055    289921.87    15.043626 
22411000    1890.3826   -692.64402    315747.99    15.017306 
WARNING: Wall time limit reached (../timer.cpp:263)
Loop time of 85801.7 on 6 procs for 22411000 steps with 250 atoms

Performance: 45.135 ns/day, 0.532 hours/ns, 261.195 timesteps/s
99.0% CPU use with 6 MPI tasks x no OpenMP threads

MPI task timing breakdown:
Section |  min time  |  avg time  |  max time  |%varavg| %total
---------------------------------------------------------------
Pair    | 4385       | 4474       | 4621.7     | 127.0 |  5.21
Neigh   | 133.3      | 134.78     | 136.42     |   8.7 |  0.16
Comm    | 1108.7     | 1268.4     | 1360.5     | 259.1 |  1.48
Output  | 2603.5     | 2603.5     | 2603.6     |   0.1 |  3.03
Modify  | 77239      | 77253      | 77267      |   3.2 | 90.04
Other   |            | 67.62      |            |       |  0.08

Nlocal:    41.6667 ave 44 max 39 min
Histogram: 1 0 1 0 0 0 2 0 1 1
Nghost:    1166.83 ave 1183 max 1152 min
Histogram: 1 0 2 0 1 0 0 0 0 2
Neighs:    3575.67 ave 3784 max 3369 min
Histogram: 2 0 0 0 0 2 0 0 1 1

Total # of neighbors = 21454
Ave neighs/atom = 85.816
Neighbor list builds = 1133133
Dangerous builds = 2

write_data	data.final.${p_id}
write_data	data.final.0
Total wall time: 23:50:02
