LAMMPS (1 Feb 2019)
echo both

include		in.temp
variable	temperature equal 375.
variable	tempDamp equal 0.1 # approx 0.1 ps
include		in.pressure
variable	pressure equal 1.
variable	pressureDamp equal 1.0
include 	in.seed
variable	seed equal 74581
units		metal
include		in.box
variable 	mass equal 22.98977

lattice 	bcc 4.228
Lattice spacing in x,y,z = 4.228 4.228 4.228
region          box block 0 5 0 5 0 5
create_box      1 box
Created orthogonal box = (0 0 0) to (21.14 21.14 21.14)
  1 by 1 by 2 MPI processor grid
create_atoms    1 box
Created 250 atoms
  Time spent = 0.000240013 secs
mass            1 ${mass}
mass            1 22.98977
#change_box	all triclinic


include 	in.setup
variable	out_freq equal 500
variable	out_freq2 equal 500

neigh_modify    delay 10 every 1
include		in.na
pair_style 	eam/fs
pair_coeff 	* * Na_MendelevM_2014.eam.fs Na

timestep	0.002 # According to Frenkel and Smit is 0.001

thermo          ${out_freq}
thermo          500
thermo_style 	custom step temp pe press lx


restart 	${out_freq} Restart.lmp Restart2.lmp
restart 	500 Restart.lmp Restart2.lmp



# NPT


fix             1 all nph iso ${pressure} ${pressure} ${pressureDamp}
fix             1 all nph iso 1 ${pressure} ${pressureDamp}
fix             1 all nph iso 1 1 ${pressureDamp}
fix             1 all nph iso 1 1 1
fix             2 all temp/csvr ${temperature} ${temperature} ${tempDamp} ${seed}
fix             2 all temp/csvr 375 ${temperature} ${tempDamp} ${seed}
fix             2 all temp/csvr 375 375 ${tempDamp} ${seed}
fix             2 all temp/csvr 375 375 0.1 ${seed}
fix             2 all temp/csvr 375 375 0.1 74581
fix		3 all momentum 10000 linear 1 1 1 angular

velocity        all create ${temperature} ${seed} dist gaussian
velocity        all create 375 ${seed} dist gaussian
velocity        all create 375 74581 dist gaussian

run             50000
Neighbor list info ...
  update every 1 steps, delay 10 steps, check yes
  max neighbors/atom: 2000, page size: 100000
  master list distance cutoff = 11.2
  ghost atom cutoff = 11.2
  binsize = 5.6, bins = 4 4 4
  1 neighbor lists, perpetual/occasional/extra = 1 0 0
  (1) pair eam/fs, perpetual
      attributes: half, newton on
      pair build: half/bin/atomonly/newton
      stencil: half/bin/3d/newton
      bin: standard
Per MPI rank memory allocation (min/avg/max) = 3.389 | 3.389 | 3.389 Mbytes
Step Temp PotEng Press Lx 
       0          375    -277.7555    1357.8047        21.14 
     500    381.22515   -265.03374    667.08314    21.548201 
    1000    391.17932   -264.11132    25.937594    21.645686 
    1500    390.71452    -264.6071     798.4674     21.54338 
    2000    357.75236   -264.03018    740.81713    21.543631 
    2500    373.01909   -262.56554    724.03618    21.604487 
    3000    376.68998   -264.84822    1127.5223    21.510192 
    3500    379.89601   -264.97033    31.139045    21.609822 
    4000    380.97098   -264.06086   -290.25895    21.678821 
    4500    357.58238   -264.43068   -194.05593    21.638628 
    5000    364.55135   -263.95532   -709.54609    21.701486 
    5500    372.06778   -261.99253   -481.60052    21.754924 
    6000    359.94719   -264.89368   -661.05911    21.686518 
    6500    405.82071   -263.12342   -758.32681    21.755486 
    7000    360.93819   -264.57583   -1104.4349     21.74049 
    7500    367.63186   -262.92435   -705.86725     21.75008 
    8000    376.95927   -263.60689    -708.6926    21.726253 
    8500    394.35439   -264.64852   -511.25026    21.682659 
    9000    371.79783   -264.27335   -581.09915    21.684262 
    9500    364.70221   -263.40437    -828.3316    21.738616 
   10000     378.8072   -263.28022   -932.96096     21.76691 
   10500    344.24839   -263.84269   -566.47712    21.694327 
   11000    367.41911   -264.24236   -382.32845    21.665188 
   11500    370.09603   -264.40865    129.21248    21.618133 
   12000    373.57114   -264.33831    321.31225    21.599249 
   12500    368.75519   -264.42112    1260.1377    21.498595 
   13000    394.18641    -263.4603    595.46862    21.591617 
   13500    424.26281   -262.29667     847.5927    21.605079 
   14000    352.73818   -263.37161    342.45178    21.613455 
   14500    379.10902   -263.02524    198.30729    21.645206 
   15000      360.678   -263.87999    310.72443    21.608769 
   15500    362.36225   -265.53765    667.55227    21.526366 
   16000    376.85612   -265.24505    842.78851    21.531236 
   16500    347.67226   -264.55067    291.52515    21.588854 
   17000    440.79787   -264.07066    -548.5868    21.718119 
   17500    360.22537   -262.51749   -68.926003    21.681717 
   18000    365.89674   -263.98834   -444.99232    21.688849 
   18500    355.07794   -264.55585     220.7989    21.610172 
   19000    364.06198   -264.40972     651.4723    21.571264 
   19500     381.6226   -264.20402    680.87278    21.562159 
   20000    390.49034   -262.77831    592.62927     21.61308 
   20500    394.23763   -263.67805    -24.61441    21.656085 
   21000    374.80236   -262.95535   -221.58303    21.683581 
   21500    396.97782   -263.00993    -507.4034    21.732178 
   22000    379.44542   -263.85918   -537.23463    21.701659 
   22500    396.41267    -264.5396   -1279.5628    21.783266 
   23000    361.41192   -263.58812   -723.40009    21.727961 
   23500    384.20985   -262.88621   -254.32939    21.699207 
   24000    356.67967   -263.71357    178.04438    21.613926 
   24500    390.36507   -263.99277    453.80517    21.598639 
   25000    412.79206   -264.42527    914.40059     21.55716 
   25500    423.87879    -264.1621      903.883    21.561967 
   26000    376.47093   -264.29944    78.301735    21.619696 
   26500    347.63354    -264.4959    890.83009    21.529864 
   27000    382.17028   -264.62924    1086.6993    21.518419 
   27500    357.41733   -263.58777    295.94402    21.626543 
   28000    364.38875   -263.17926   -119.06581    21.672701 
   28500    389.53799   -263.90777    179.51959    21.631148 
   29000    401.67617   -264.11955    97.787536    21.633105 
   29500    391.04349   -263.62985    273.12566    21.612453 
   30000    359.55948   -265.72172   -218.90842    21.620769 
   30500    337.08813   -262.71851   -355.84682    21.684906 
   31000    359.96447   -263.15241   -141.74705    21.664283 
   31500    372.55407   -264.08746   -489.21649    21.682683 
   32000    374.81137   -262.64809   -55.579822    21.667997 
   32500     394.5884    -263.7781    205.43043    21.633985 
   33000    394.48719   -263.73537    569.85003    21.606198 
   33500    373.27879   -264.64283    447.29972    21.585547 
   34000    402.03303   -264.83129   -42.549652    21.630197 
   34500    380.52381    -264.1556   -38.160504    21.641569 
   35000    354.67628   -263.87173    648.14951    21.559191 
   35500    391.34926   -265.14775    315.79151    21.594901 
   36000    355.24298   -263.97949    47.383029    21.623086 
   36500    378.34819   -264.37729    785.38501    21.532604 
   37000    377.84146   -263.35562    136.09847    21.638515 
   37500    393.05314   -263.89539    116.79789    21.633025 
   38000    376.55224   -263.41315   -70.648099    21.664193 
   38500    399.23933   -262.54402   -154.64306    21.699706 
   39000    366.50057     -264.262   -257.98266    21.666376 
   39500    370.48904   -263.00043   -130.45739    21.681623 
   40000    383.21172   -263.96839    -905.3171    21.744607 
   40500    386.68834   -264.43536   -797.76667    21.729162 
   41000    379.37153    -264.5098    -660.4719      21.6908 
   41500    359.94702   -265.07004    -112.3122    21.616281 
   42000     389.4121   -264.09632   -225.31493    21.665329 
   42500    377.19747   -263.99835    264.43051    21.617259 
   43000    375.26139   -264.40168    948.28708    21.529437 
   43500     414.8831   -264.03264    498.78887    21.594815 
   44000    420.66301   -264.12915    471.27757      21.5982 
   44500    360.23517   -264.58769    855.82527    21.542348 
   45000    356.47724   -263.82589    295.58604    21.606638 
   45500    366.67827   -263.93154    344.83387    21.604476 
   46000    428.44066   -263.82661    44.072328    21.663076 
   46500    399.38994   -264.43903    506.37491    21.593232 
   47000    349.56314   -263.24529    232.05274    21.626474 
   47500    384.94388   -263.25059    564.65401    21.605975 
   48000    341.41964   -263.39956    822.63166    21.556126 
   48500    402.05149     -265.089    189.03871    21.600559 
   49000     385.5535    -263.4451    371.93619     21.63481 
   49500     339.9371   -264.82209    368.91993      21.5546 
   50000    377.69384   -264.18288    20.171879    21.632573 
Loop time of 29.257 on 2 procs for 50000 steps with 250 atoms

Performance: 295.314 ns/day, 0.081 hours/ns, 1708.996 timesteps/s
83.8% CPU use with 2 MPI tasks x no OpenMP threads

MPI task timing breakdown:
Section |  min time  |  avg time  |  max time  |%varavg| %total
---------------------------------------------------------------
Pair    | 17.908     | 18.545     | 19.183     |  14.8 | 63.39
Neigh   | 0.35277    | 0.36196    | 0.37115    |   1.5 |  1.24
Comm    | 1.0244     | 1.6726     | 2.3207     |  50.1 |  5.72
Output  | 8.164      | 8.1643     | 8.1647     |   0.0 | 27.91
Modify  | 0.40336    | 0.40455    | 0.40575    |   0.2 |  1.38
Other   |            | 0.108      |            |       |  0.37

Nlocal:    125 ave 125 max 125 min
Histogram: 2 0 0 0 0 0 0 0 0 0
Nghost:    1566 ave 1572 max 1560 min
Histogram: 1 0 0 0 0 0 0 0 0 1
Neighs:    9238.5 ave 9701 max 8776 min
Histogram: 1 0 0 0 0 0 0 0 0 1

Total # of neighbors = 18477
Ave neighs/atom = 73.908
Neighbor list builds = 1397
Dangerous builds = 0

unfix		1
unfix		2
unfix		3



include		in.dump
dump            myDump all atom ${out_freq2} dump.na
dump            myDump all atom 500 dump.na
dump            myDcdDump all dcd ${out_freq2} out.dcd
dump            myDcdDump all dcd 500 out.dcd
dump_modify	myDump append yes
dump_modify     myDcdDump append yes


timer 		timeout 23:50:00 every 1000
New timer settings: style=normal  mode=nosync  timeout=23:50:00

fix             1 all plumed plumedfile plumed.dat outfile plumed.out
fix             2 all nph iso ${pressure} ${pressure} ${pressureDamp}
fix             2 all nph iso 1 ${pressure} ${pressureDamp}
fix             2 all nph iso 1 1 ${pressureDamp}
fix             2 all nph iso 1 1 1
fix             3 all temp/csvr ${temperature} ${temperature} ${tempDamp} ${seed}
fix             3 all temp/csvr 375 ${temperature} ${tempDamp} ${seed}
fix             3 all temp/csvr 375 375 ${tempDamp} ${seed}
fix             3 all temp/csvr 375 375 0.1 ${seed}
fix             3 all temp/csvr 375 375 0.1 74581
fix		4 all momentum 10000 linear 1 1 1 angular

run             500000
Per MPI rank memory allocation (min/avg/max) = 4.422 | 4.422 | 4.422 Mbytes
Step Temp PotEng Press Lx 
   50000    377.69384   -264.18288    20.171879    21.632573 
   50500    361.76272   -263.96353    68.973704    21.632035 
   51000    381.12534   -263.57232    184.82144    21.618115 
   51500    381.49597   -263.74946    1267.1089    21.505928 
   52000    353.17478   -264.29733    1052.4595    21.514828 
   52500    400.99712     -262.976    846.63787    21.584397 
   53000    372.99298    -264.4291    856.92843    21.543936 
   53500    339.71665   -263.40668    243.08416    21.621123 
   54000    368.02968   -263.56681    536.96718    21.600538 
   54500    346.08724   -263.64786    356.69783    21.608722 
   55000    351.35505   -263.41102    158.26876    21.624482 
   55500      405.541    -262.6747   -100.30941    21.695814 
   56000    341.92146   -263.90309    123.24475    21.612614 
   56500    403.10006   -262.88282    9.9212286    21.676114 
   57000    354.00891   -264.21034   -266.57957     21.66316 
   57500    377.94951    -263.0081   -535.89861    21.726913 
   58000    393.73955   -264.30072    -567.4592    21.695173 
   58500    388.36719   -264.81436   -453.79714    21.668031 
   59000    368.57433   -264.08122   -505.96879    21.693827 
   59500     365.2629   -263.57548   -449.57376    21.694352 
   60000    373.67174   -263.33057   -112.52321    21.675265 
   60500    350.24058    -264.2378    337.21469    21.577715 
   61000     365.5232    -263.8009    218.57729    21.630017 
   61500    378.96402   -264.04355     407.4507    21.587295 
   62000    400.37654   -264.93911    553.71368    21.576985 
   62500    391.02658   -264.90117    995.56944     21.52312 
   63000    374.26702   -262.93572    301.15846    21.646221 
   63500    413.85715   -262.27444    751.27574     21.63251 
   64000    362.63011   -263.89518   -71.427386    21.648167 
   64500    362.12877   -263.20906    97.717283    21.652973 
   65000    384.45202   -264.89468   -476.87947    21.673045 
   65500    336.03827   -264.22518   -225.85082    21.652663 
   66000    374.96324   -264.30267   -200.30878    21.653181 
   66500    332.76308    -264.6746   -838.44202     21.69414 
   67000    414.35486   -263.04078   -1200.9649    21.827182 
   67500    399.33588   -264.28685   -334.36279    21.675565 
   68000    377.49033   -263.85592   -433.55536    21.689837 
   68500    394.91809   -265.39816    103.39229    21.613005 
   69000    368.85115   -264.39828     675.9334    21.566981 
   69500    396.67676   -264.29005    1518.9323    21.491158 
   70000    417.50457   -264.56727    736.73154    21.564293 
   70500    386.68555   -263.49539    467.04739    21.603091 
   71000    388.97528   -263.88264    175.31622    21.639175 
   71500    405.18277   -263.98683   -222.69964    21.672422 
   72000    380.36162   -263.77534   -236.82583    21.665482 
   72500    393.33716   -263.78078   -629.16738    21.708436 
   73000    373.60198   -264.50309   -208.08918    21.653104 
   73500    394.41452   -264.27443    155.71213    21.617024 
   74000    391.18801   -265.19453    641.18341     21.54543 
   74500    379.43255   -263.28439    885.52012    21.570555 
   75000    389.21299    -263.4839    197.36904    21.637796 
   75500    392.84714    -263.6875    104.19734    21.654998 
   76000    360.44091   -264.21906   -380.66296    21.670105 
   76500     347.4124   -264.03477   -210.32316    21.648769 
   77000    354.39895   -263.07909   -330.89222    21.681449 
   77500    367.18401   -263.89273    -68.90571    21.651255 
   78000    393.20373   -264.48636   -583.03768    21.712611 
   78500    362.56431   -262.92957   -219.47238    21.696487 
   79000     391.0393   -264.37856   -610.20686    21.712626 
   79500    392.49172   -264.34216   -764.06443    21.719211 
   80000     330.9782   -264.79854   -413.01536    21.652199 
   80500    365.61895   -263.95705   -864.55507    21.725227 
   81000    341.66426   -263.32348    -703.4367    21.725179 
   81500     370.8835   -264.05635   -991.06739    21.734644 
   82000    364.77037   -262.25611   -755.04162    21.758206 
   82500    376.65549   -263.52661   -643.74962    21.731199 
   83000    404.67104   -264.36105   -529.80659    21.695479 
   83500    348.24896   -264.07538   -73.793691     21.63482 
   84000    382.24257    -263.6049    221.06054     21.62904 
   84500    383.14424    -263.8167    45.732314    21.638026 
   85000    359.79622   -264.00736    1092.0014    21.516037 
   85500    364.91577    -264.1711    365.24663     21.60255 
   86000    376.41966   -264.20719    163.26733    21.617308 
   86500    382.85257   -264.28431    948.95791    21.547032 
   87000    367.89416   -263.44512    630.90887    21.587526 
   87500    384.55686   -263.71601    563.94548    21.590121 
   88000     380.0107   -263.81264   -142.79222    21.664159 
   88500    376.70161   -261.72895    197.26539    21.685178 
   89000    350.39207   -263.87816   -595.25918     21.69825 
   89500    390.40547   -263.67285   -826.70553    21.744606 
   90000    366.23565   -262.75518   -235.42687    21.688223 
   90500    370.73658   -262.30341   -56.889587    21.695168 
   91000    357.58529   -263.32714   -328.29409     21.68555 
   91500    353.51286   -265.12491    194.82809    21.584249 
   92000    365.69826   -263.45809   -355.70386     21.69719 
   92500    363.62643   -263.31893   -50.904508    21.654652 
   93000    393.09612   -263.65703    1619.3036    21.479113 
   93500    415.59571   -263.92602    813.31332    21.569728 
   94000    432.48161    -264.6853    217.37869    21.630833 
   94500    371.42805   -265.01603    392.41319    21.568721 
   95000    356.68343   -264.02789   -255.59992    21.653241 
   95500    368.90242   -263.40545   -664.23646    21.730799 
   96000    424.14992   -263.67295   -684.82521    21.736831 
   96500    384.36531   -264.07406    132.35883    21.629171 
   97000    377.11797   -264.10393    551.52513    21.578505 
   97500    376.29452   -263.75632    1611.7724    21.478246 
   98000    370.62394   -264.13151    1059.6057    21.533663 
   98500    370.99726   -263.42187     617.2923     21.58877 
   99000    386.07601    -263.0066    373.96439    21.638088 
   99500    328.97766    -264.7106     594.3654    21.549382 
  100000    366.95753   -264.36883    1216.2082    21.498438 
  100500    387.26599   -265.12434    603.35105    21.550121 
  101000    405.97888   -263.44607    297.91082    21.651653 
  101500    345.66051   -264.57252   -634.29093    21.672904 
  102000    390.49504   -262.41002   -674.14521    21.768798 
  102500    354.97412   -264.53842   -249.69915    21.651144 
  103000    384.45945   -263.92078   -79.865423    21.648322 
  103500    355.11029   -263.51128   -390.32451    21.691104 
  104000    334.76974   -263.97169   -229.85335    21.656044 
  104500    399.20591   -265.34175   -224.97648    21.641191 
  105000    378.54387    -263.5213    -368.3061    21.678611 
  105500    431.64417   -264.56949   -140.54318    21.670822 
  106000    394.95383    -263.7971   -74.032811    21.668496 
  106500    401.45135   -263.77521    38.938176    21.666777 
  107000    361.53486   -264.69745   -54.763345    21.626714 
  107500    375.40506   -264.36609   -132.62587    21.648725 
  108000    379.28491   -263.34389    574.98152    21.605953 
  108500    396.19381   -263.36037    576.58175    21.609907 
  109000    384.58156   -263.88888    497.25283    21.593096 
  109500    382.28547   -263.56591    244.55688    21.635684 
  110000    395.14979   -264.45919    283.49154    21.619947 
  110500    385.15932   -264.20906    938.01452    21.541048 
  111000    363.57542   -263.70385    1195.9596    21.520552 
  111500    342.98452   -265.67768    778.86788    21.514328 
  112000    381.79092   -263.52134    407.29725    21.614975 
  112500    396.46307   -263.53505    535.41619     21.60086 
  113000    364.50059   -263.10703    348.52112    21.634562 
  113500    363.45097   -263.78792    1767.2647     21.46098 
  114000    371.01555   -264.32996    1081.9915    21.515871 
  114500    364.75928   -263.28151    401.37747    21.613478 
  115000    405.45783   -264.87916    170.57756     21.61732 
  115500    394.28511   -264.20627   -382.15288    21.684125 
  116000    350.35761   -263.51384   -82.973289     21.65173 
  116500     372.0554   -264.16523    243.39992    21.615263 
  117000    364.75247   -264.60533    209.47657    21.590497 
  117500    374.72133   -264.01834    447.06811    21.603659 
  118000    418.75517   -263.84433    576.51705    21.607948 
  118500    356.66343     -263.791    277.33787    21.618357 
  119000     361.3597   -262.73807   -59.046619    21.670816 
  119500    378.89927   -264.10269   -234.20193    21.658545 
  120000    396.21578   -263.62725   -165.55258    21.658243 
  120500    341.60927   -263.13706   -473.96575    21.708557 
  121000    360.41928   -264.42108   -175.31107    21.644387 
  121500    380.62354   -264.23284   -145.43245    21.649808 
  122000    355.40884   -263.61582    177.03777    21.634431 
  122500    385.57249   -264.67392    -45.70954    21.619962 
  123000     376.7889   -263.65799    319.29807    21.617146 
  123500    401.34285   -263.87999    348.07995    21.611038 
  124000     388.9293   -263.62732    319.84493    21.622842 
  124500    373.15958   -264.66966     310.7479    21.592383 
  125000    388.45839   -264.02366    490.85668    21.601271 
  125500    361.79331   -264.87207   -84.670696    21.628196 
  126000    387.93024   -265.18656    250.04984    21.595718 
  126500    388.92544   -265.21907    366.51552    21.577798 
  127000     388.5432   -265.03362    426.25163     21.58632 
  127500     352.7391   -265.33099    899.84432    21.488942 
  128000    419.36907   -263.21392    572.93973    21.609213 
  128500    389.42424   -264.38475    158.66598    21.600919 
  129000     377.8793   -263.33792    65.035089    21.645292 
  129500    394.41555    -264.0824   -159.46974    21.660992 
  130000    378.16432   -264.33839    280.67287    21.610666 
  130500    357.75201   -263.10476    312.49788    21.630767 
  131000    398.55313   -264.36252    566.28315    21.563544 
  131500    367.42782   -263.00357    766.19797    21.580172 
  132000    355.29246   -263.00153    1329.2225    21.517507 
  132500    366.25154   -264.56372   -303.16524     21.66213 
  133000     374.8305   -262.89511   -434.60997    21.716741 
  133500    369.63947   -263.63344   -300.36052      21.6838 
  134000    369.62685   -265.44602    46.593982      21.5892 
  134500    406.51086   -264.47008   -78.799406    21.643993 
  135000    382.35445    -262.7887    93.618935    21.659631 
  135500    387.83323   -262.39639    55.130531    21.685743 
  136000     330.7671   -263.62535     511.6991    21.598576 
  136500    356.67754   -263.78215    67.543518    21.638663 
  137000    418.23784   -262.43941    137.58315    21.677653 
  137500    374.10365   -263.60493    680.31572    21.577555 
  138000    394.07819    -262.1135    1442.4021    21.535155 
  138500    337.14945   -263.15023    395.79016    21.603898 
  139000    381.61345   -263.33035   -360.95096    21.704997 
  139500    355.65273   -263.97321   -513.39898    21.694971 
  140000    391.04966   -263.72277   -862.88416    21.744073 
  140500    382.81606   -262.78138   -352.50083    21.718224 
  141000    345.09473   -263.41038   -275.54377    21.673678 
  141500    369.70781   -265.73905    184.04738    21.576405 
  142000    378.89221   -264.34686    349.44599    21.602545 
  142500    405.11186   -263.40115    846.85254    21.574281 
  143000     389.9873   -263.27926    572.81495    21.600866 
  143500    373.59514   -264.22748    403.37643    21.594327 
  144000    374.10577   -264.08077    -64.20968    21.645394 
  144500    346.84873   -264.54674   -419.21822    21.669228 
  145000     364.2619   -263.56499   -104.25089    21.669294 
  145500     399.3295   -264.86875   -36.212905    21.634637 
  146000    409.42098   -263.18877    1017.5848    21.570684 
  146500    381.38867   -264.20972    383.70569    21.592476 
  147000    372.29306   -264.08795    349.79271    21.605675 
  147500    349.48118   -263.69874    221.82591    21.620956 
  148000    364.93191   -264.08872    716.60863    21.568695 
  148500    380.94331   -264.08989    1224.7252    21.515401 
  149000     359.4291   -262.80395    872.41848    21.560672 
  149500    403.76665   -263.39454    388.52421    21.621319 
  150000    362.26793    -261.5556    115.10676    21.684083 
  150500     372.6311   -263.72344    320.91127    21.608537 
  151000    348.45358   -265.00386    1840.9271    21.421439 
  151500    399.91202   -264.53286    576.79616    21.570588 
  152000    388.97253   -264.44891    820.48393    21.543446 
  152500    375.39791   -262.97506    210.47308     21.64585 
  153000    394.24256   -263.96638     309.4834    21.616178 
  153500    372.98653    -264.9274    608.83954    21.558311 
  154000    402.87261   -265.06068    14.450619    21.610632 
  154500    373.02396   -263.71037    435.49496    21.603926 
  155000    355.62613   -264.50959    732.37805    21.529452 
  155500    362.18772   -263.89222    471.43478    21.596294 
  156000    383.58775   -264.42419    672.50536    21.566958 
  156500    373.36505    -264.3857    188.71507    21.610144 
  157000    346.90225   -263.34479    103.98342    21.633455 
  157500    365.84899   -264.63028    -209.9134    21.646979 
  158000    435.52282    -263.7514   -285.77719    21.700035 
  158500    378.74516   -264.28531   -589.30055    21.693612 
  159000     368.1248   -263.34632    -78.81557    21.681711 
  159500    377.32514   -264.90368   -518.47973    21.667236 
  160000     355.1785   -263.64359   -636.34145    21.714041 
  160500    375.15022   -263.27652   -1370.6432    21.809468 
  161000    389.34428   -264.82847   -488.83698    21.671243 
  161500    386.52264   -264.17454   -787.91483    21.727434 
  162000    356.45912    -263.5403   -645.00897     21.71403 
  162500     358.4818   -264.69316   -618.89676    21.694707 
  163000    370.81706   -264.30737   -576.44486    21.697436 
  163500    384.71952   -264.59786   -320.39041    21.663761 
  164000    350.05124   -264.06543   -39.670459    21.637086 
  164500    371.41135   -264.60386   -125.19101    21.633875 
  165000    389.32864   -263.37031   -344.93911    21.701535 
  165500     379.3459   -264.68419   -82.690529    21.643948 
  166000    387.16229   -263.95096   -527.03588    21.708736 
  166500    393.56483   -263.78623   -599.33379    21.709749 
  167000    350.21147   -263.23695   -1173.0496      21.7759 
  167500    363.63714   -264.22712   -1187.4948    21.750673 
  168000    378.33749   -262.12843   -581.58483    21.745781 
  168500    400.87702   -265.03922   -370.77672    21.656463 
  169000    367.34962   -264.17155     167.6193    21.613573 
  169500    418.23083   -264.40871   -54.807936     21.64656 
  170000    347.02489   -262.92374     -153.157    21.677618 
  170500    364.71227   -263.62183   -364.25563    21.691988 
  171000    397.70043   -263.53168   -160.57132    21.678478 
  171500    352.28185   -262.68178    -1025.336     21.78414 
  172000    452.77397   -264.06697   -607.55942    21.736633 
  1