LAMMPS data file via write_data, version 1 Feb 2019, timestep = 500000

250 atoms
1 atom types

7.4472624567373913e-02 1.4925527375432424e+01 xlo xhi
7.4472624567373913e-02 1.4925527375432424e+01 ylo yhi
7.4472624567373913e-02 1.4925527375432424e+01 zlo zhi

Masses

1 26.982

Atoms # atomic

2 1 1.6207561578428502e+00 1.3898767896009192e+00 1.4208938933078175e+00 0 0 0
52 1 1.3503339378542818e+00 1.5267398565955563e+00 4.8918613055724789e+00 0 0 0
63 1 2.9882505092512490e+00 2.6889168458273724e+00 2.9319435302756114e+00 0 0 0
107 1 3.2584518850871320e+00 2.9534958460373768e+00 5.9250088547311863e+00 0 0 0
14 1 4.2726972527568767e+00 4.4922193808129238e+00 1.4673115141014326e+00 0 0 0
62 1 1.5592017615208507e+00 4.3875413537061148e+00 4.3677510779618185e+00 0 0 0
64 1 4.5010991188862395e+00 4.6592034282563013e+00 4.6275572243260434e+00 0 0 0
12 1 1.5279320223652135e+00 4.4238110266911654e+00 1.4948957091067521e+00 0 0 0
54 1 4.9504482323947112e+00 1.3639368255131630e+00 4.5293464568960218e+00 0 0 0
4 1 4.4118669681566187e+00 1.3251575248108498e+00 1.5357975803410284e+00 0 0 0
61 1 3.9258009912466885e-01 2.9297369188604101e+00 2.6397088059472460e+00 0 0 0
102 1 3.0035595224595690e+00 1.9313379370080708e-01 5.8273297508491861e+00 0 0 0
53 1 2.9567349922759751e+00 2.4227260061893513e-01 3.0685347309075057e+00 0 0 0
132 1 4.6734050431441512e+00 4.6681406161621490e+00 7.3984460388810769e+00 0 0 0
128 1 7.6160425007068042e+00 1.3198914943377023e+00 7.3663684586044038e+00 0 0 0
6 1 7.3525747724142745e+00 1.6005318105418636e+00 1.4216121030167348e+00 0 0 0
56 1 7.5015718139021450e+00 1.5131711135140324e+00 4.5941546262129096e+00 0 0 0
65 1 5.7793883425243031e+00 2.9291543653767969e+00 2.9043870350233574e+00 0 0 0
67 1 8.9030527704157816e+00 3.2812247604017308e+00 3.2038084655009276e+00 0 0 0
108 1 6.2043183790344250e+00 3.1012256800000402e+00 5.9380652323154610e+00 0 0 0
109 1 8.9615560698117775e+00 3.2159736175169233e+00 5.7910844011415223e+00 0 0 0
66 1 7.3631828714037324e+00 4.7039706044781777e+00 4.6664865534518976e+00 0 0 0
16 1 7.5140113226005782e+00 4.4112011155140483e+00 1.7113405619433173e+00 0 0 0
104 1 9.1844187156621118e+00 2.7170339840524527e-01 5.7329626202933008e+00 0 0 0
133 1 6.8521854569885221e+00 4.5041253660872460e+00 7.0404667082104249e+00 0 0 0
57 1 8.8027900438008633e+00 3.4508619154151021e-01 2.8839195786034457e+00 0 0 0
15 1 5.7039320463695553e+00 2.7835918143216563e+00 1.7723051541767632e-01 0 0 0
19 1 1.2083800399503041e+01 3.2466293249374529e+00 1.4145861984926733e-01 0 0 0
106 1 1.4855541830028496e+01 3.2386222232521602e+00 6.2009549649694726e+00 -1 0 0
58 1 1.0846734407654811e+01 1.7009555609856413e+00 4.6912238624995153e+00 0 0 0
68 1 1.0905566351144998e+01 4.3933907550714020e+00 4.8387423843851538e+00 0 0 0
8 1 1.0252633371421510e+01 1.9040246508406553e+00 1.4984577342386924e+00 0 0 0
10 1 1.3035960154184171e+01 1.7588477177026569e+00 1.3852966522625532e+00 0 0 0
60 1 1.3612088356172874e+01 1.8995977048991259e+00 4.7253854996568565e+00 0 0 0
69 1 1.2167174912229758e+01 2.9998058383981432e+00 3.2703060571283218e+00 0 0 0
110 1 1.2556804967286228e+01 3.2254305088027464e+00 6.2428156581920202e+00 0 0 0
70 1 1.3867671543459645e+01 4.4679970857181228e+00 4.1336398079212975e+00 0 0 0
20 1 1.3488362565450874e+01 4.3255453180242949e+00 1.7521004542401641e+00 0 0 0
18 1 1.0465238426539202e+01 4.5440211005309843e+00 1.7941371889824260e+00 0 0 0
51 1 1.4726229038318541e+01 3.3418911325327372e-01 2.9498550760199631e+00 -1 0 0
129 1 1.0497941004822188e+01 1.7920057738278397e+00 7.1766490921599493e+00 0 0 0
23 1 2.9076209899535015e+00 5.9874841749904677e+00 1.6988209935954679e-01 0 0 0
22 1 1.5358408587074805e+00 7.4982926648965682e+00 1.4265761050430725e+00 0 0 0
72 1 1.4902275487174887e+00 7.6598351201381814e+00 4.3343737998298124e+00 0 0 0
73 1 2.9836555419879316e+00 5.8046073736884622e+00 2.9935346594182235e+00 0 0 0
83 1 3.2419454151802811e+00 8.9992683113151450e+00 2.7375817544941397e+00 0 0 0
112 1 2.9278457814245202e+00 5.8210077187802280e+00 5.9872854729317622e+00 0 0 0
117 1 3.0637761374637282e+00 8.4504594410564220e+00 6.0961707119543123e+00 0 0 0
24 1 4.3690046430980845e+00 7.4759807054656351e+00 1.3702703167729040e+00 0 0 0
74 1 4.3261535374467099e+00 7.7992352644976153e+00 4.1968567673620161e+00 0 0 0
71 1 1.0133959840555326e-01 6.1311925026907934e+00 2.7070505738400792e+00 0 0 0
111 1 3.4430982010934091e-01 5.9364671612278190e+00 5.6642897428687817e+00 0 0 0
116 1 3.5323424198219167e-01 9.0377231611679303e+00 6.4487505751060032e+00 0 0 0
81 1 3.0439445820304090e-01 9.0230877966387073e+00 2.9901563366094499e+00 0 0 0
26 1 7.3254890154128356e+00 7.5366151724009249e+00 1.8293222180646791e+00 0 0 0
75 1 5.8133412749696030e+00 5.7626521760991967e+00 3.0354779090495656e+00 0 0 0
76 1 7.3456351745415036e+00 7.3637995941165224e+00 4.4913833852422611e+00 0 0 0
77 1 9.0094536799736762e+00 5.8905826925537479e+00 3.3950117900091827e+00 0 0 0
85 1 5.8543205945926875e+00 9.1519321484958898e+00 2.8087673340599562e+00 0 0 0
87 1 9.0591295494338535e+00 8.6870104362845630e+00 2.8777971266905089e+00 0 0 0
113 1 5.4470032990006985e+00 6.4163849695780684e+00 5.9187087924418114e+00 0 0 0
114 1 8.9953833488037365e+00 5.8807961942361047e+00 6.0621922332336897e+00 0 0 0
118 1 6.3231835274680872e+00 8.8348027034316221e+00 6.0240548185413143e+00 0 0 0
119 1 8.7055416247098307e+00 9.1534621761985555e+00 6.0213133757859705e+00 0 0 0
37 1 8.9543700492072560e+00 8.9138313372328408e+00 2.7125384255885632e-01 0 0 0
27 1 9.1297580992915641e+00 6.0337137318238279e+00 4.8668658841458640e-01 0 0 0
25 1 6.0275570187039964e+00 5.9243774855239506e+00 2.0597535204413978e-01 0 0 0
35 1 6.0546325065091686e+00 8.7494931558145108e+00 1.7387680137204986e-01 0 0 0
139 1 1.0517217950725383e+01 7.5444592321572923e+00 7.4178290833119744e+00 0 0 0
78 1 1.0236349948886202e+01 7.5295509818090105e+00 4.5528014022774137e+00 0 0 0
28 1 1.0703634066090496e+01 7.7462258677085902e+00 1.4060760233267826e+00 0 0 0
30 1 1.3631648391802273e+01 7.5752243279447260e+00 1.2691838869917522e+00 0 0 0
79 1 1.2052102709306029e+01 6.1213910554214364e+00 2.7968488548127346e+00 0 0 0
80 1 1.3550940078790996e+01 7.3449757500121713e+00 4.4401433720323640e+00 0 0 0
89 1 1.2137624462653406e+01 8.6487766956909677e+00 3.3845338993050293e+00 0 0 0
115 1 1.2341195187633893e+01 5.9657162842814833e+00 6.2523989275147205e+00 0 0 0
120 1 1.2201102728665692e+01 8.8028328576116959e+00 6.2350386450800270e+00 0 0 0
21 1 1.4731203981781892e+01 5.7753002783909917e+00 2.5991765084446783e-01 -1 0 0
82 1 1.9713520015656938e+00 1.0036983993134168e+01 4.7239601255312911e+00 0 0 0
147 1 4.2551684301111194e+00 1.3478619107964754e+01 7.1377161777673592e+00 0 0 0
121 1 2.9721271309457009e-01 1.2155427346877921e+01 6.0413234366852953e+00 0 0 0
32 1 1.5826214673934744e+00 1.0552155500229420e+01 1.4467580736628645e+00 0 0 0
84 1 4.1680985301342721e+00 1.0504735832208016e+01 4.7663801229168881e+00 0 0 0
42 1 1.2953625753246920e+00 1.3547731958779293e+01 1.6599895974638521e+00 0 0 0
92 1 1.3271451514371810e+00 1.3525287425254376e+01 4.4731927057408614e+00 0 0 0
93 1 2.5153930464495584e+00 1.2184139809875216e+01 3.0964541518831288e+00 0 0 0
122 1 2.7818055890795961e+00 1.2112161573141057e+01 5.8834726438477070e+00 0 0 0
34 1 3.9983978002107436e+00 1.0712639046125704e+01 1.4444350940938537e+00 0 0 0
44 1 4.2835970470369880e+00 1.3215376343249105e+01 1.6733412298795238e+00 0 0 0
94 1 4.2063954113316742e+00 1.3335504364541814e+01 4.3297039120389549e+00 0 0 0
142 1 4.6085158231339767e+00 1.0388592765920757e+01 7.2175634124201986e+00 0 0 0
45 1 5.6197807689600934e+00 1.1827549165981143e+01 1.7458641145546441e-01 0 0 0
55 1 6.1581499074389354e+00 1.4514319931550844e+01 2.8169552046509034e+00 0 -1 0
103 1 5.9186271188283781e+00 1.4869032762251786e+01 5.9520064476812919e+00 0 -1 0
143 1 7.2540033858279482e+00 1.0819058997817409e+01 7.0913824034474118e+00 0 0 0
123 1 5.9444423973672169e+00 1.2134748496730031e+01 5.5111440333566053e+00 0 0 0
86 1 7.5352745599447992e+00 1.0312131881856383e+01 4.1332443456401471e+00 0 0 0
96 1 7.7470574774556829e+00 1.3666761889747557e+01 4.5086571926049768e+00 0 0 0
97 1 9.1869692605943296e+00 1.1842593670644172e+01 3.1088486620269955e+00 0 0 0
95 1 5.4796947240459808e+00 1.1750264750861644e+01 2.9173530025489147e+00 0 0 0
36 1 7.4102707327726156e+00 1.0487551385924142e+01 1.6144741696881995e+00 0 0 0
46 1 7.3563489916185150e+00 1.3243553375870929e+01 1.5770264864458274e+00 0 0 0
124 1 9.2684285897414931e+00 1.2043848249203837e+01 5.9117904449854599e+00 0 0 0
148 1 7.4538861982973357e+00 1.3296779798610896e+01 7.1931034489475207e+00 0 0 0
47 1 8.9667531079789971e+00 1.1729193850197133e+01 1.0666325992351133e-01 0 0 0
5 1 5.9551905517916914e+00 1.4848957114883561e+01 1.4310799310158195e-01 0 -1 0
50 1 1.3279539072426321e+01 1.3443309632739812e+01 1.5096815786433071e+00 0 0 0
90 1 1.3125526470102518e+01 1.0567823222362735e+01 4.7969500806710297e+00 0 0 0
48 1 9.9833040374807638e+00 1.3577804226874237e+01 1.7945082036100606e+00 0 0 0
105 1 1.1842865610247658e+01 1.4792740758694901e+01 5.7993526035105054e+00 0 -1 0
59 1 1.1864767152004278e+01 1.4879914411179239e+01 2.7149012842928766e+00 0 -1 0
88 1 1.0557217689881414e+01 1.0073402531903341e+01 4.1411070749700807e+00 0 0 0
100 1 1.3485551926326446e+01 1.3247673656750257e+01 4.6199564131614475e+00 0 0 0
38 1 1.0186509517471983e+01 1.0375031961162714e+01 1.5602856638217981e+00 0 0 0
101 1 1.4488711225376054e+01 1.4921328684524999e+01 5.8986737623825416e+00 -1 -1 0
40 1 1.3548930631290048e+01 1.0423917018909465e+01 1.5490220658590390e+00 0 0 0
99 1 1.1901518789107209e+01 1.1722727681013962e+01 2.7163788695112485e+00 0 0 0
125 1 1.1881792351938584e+01 1.2053924931875107e+01 6.2550156277606002e+00 0 0 0
91 1 1.4622528667490750e+01 1.1468851312023039e+01 3.0019417071883137e+00 -1 0 0
98 1 1.0932378374304626e+01 1.3252525498251275e+01 4.2633111002717232e+00 0 0 0
152 1 2.3020702920539273e+00 1.5836116508898070e+00 1.0311702998267560e+01 0 0 0
163 1 3.2058381144021064e+00 3.2410707249416935e+00 8.7601800688931100e+00 0 0 0
202 1 1.7563707850224677e+00 1.4423929192123091e+00 1.3323877445480003e+01 0 0 0
213 1 3.1615567228340726e+00 3.2977984217229177e+00 1.2061015373587392e+01 0 0 0
204 1 4.2592098600384345e+00 1.6611773352788413e+00 1.3517384993816382e+01 0 0 0
154 1 4.6930749616610727e+00 1.6887095361989188e+00 1.0339503541839600e+01 0 0 0
162 1 1.7224560097440984e+00 4.3161074488145683e+00 1.0509015492632813e+01 0 0 0
214 1 4.4994759751294886e+00 4.5788366046592763e+00 1.3452791505301855e+01 0 0 0
212 1 1.5101678413434771e+00 4.7065719329180977e+00 1.3657024322387764e+01 0 0 0
201 1 2.6104874362554809e-01 3.2976671795348023e-01 1.1757423869970504e+01 0 0 0
211 1 2.4362135276875282e-01 2.9205624236425303e+00 1.1961001346752925e+01 0 0 0
13 1 3.0313383821316751e+00 3.0553217813536020e+00 1.4877152780660476e+01 0 0 -1
126 1 1.8450575205564876e+00 1.4324891873416290e+00 7.5652065898568379e+00 0 0 0
11 1 2.8639001350484722e-01 2.8037206621982538e+00 1.4517657963852532e+01 0 0 -1
131 1 1.6844835058940402e+00 4.7730431283148631e+00 7.8319170393401496e+00 0 0 0
127 1 4.6839424142837549e+00 1.5304427881496256e+00 7.5463971976858044e+00 0 0 0
3 1 3.0328545292886284e+00 1.5428480137117900e-01 1.4914476980424393e+01 0 0 -1
164 1 5.0453739885948572e+00 4.5232192964948563e+00 1.0692229433060033e+01 0 0 0
156 1 7.5814703625204025e+00 1.7916502894346458e+00 1.0446116044542666e+01 0 0 0
165 1 6.3559312492473303e+00 3.1072150005288703e+00 8.7244490832494677e+00 0 0 0
167 1 8.9085604731241705e+00 3.1849546018287644e+00 8.5190553557018092e+00 0 0 0
206 1 7.2473795061923747e+00 1.5203358181584459e+00 1.3240336810036686e+01 0 0 0
215 1 5.9098092044858062e+00 3.0148590758423630e+00 1.2101317603181297e+01 0 0 0
217 1 8.7244578017385894e+00 3.1830812548534402e+00 1.2213091941938208e+01 0 0 0
166 1 7.5567919504382113e+00 4.4329316606515103e+00 1.0536152700592949e+01 0 0 0
216 1 7.4154616542427103e+00 4.3717907017870248e+00 1.3589483960522237e+01 0 0 0
157 1 8.9399845012575820e+00 9.1096986894060095e-02 9.1182734064272530e+00 0 0 0
7 1 8.8303445333002983e+00 8.0787758685421096e-02 1.4777392293871912e+01 0 0 -1
17 1 8.9531260689268581e+00 3.1047493941880218e+00 1.4769139534554601e+01 0 0 -1
1 1 1.4885731435269156e+01 3.3180134882044676e-01 1.4882929681950953e+01 -1 0 -1
161 1 1.4752363864488959e+01 2.5532913749769830e+00 8.9415137687802861e+00 -1 0 0
208 1 1.0351168146010824e+01 1.5370081710149905e+00 1.3572062429988112e+01 0 0 0
158 1 1.0277173631711573e+01 1.9189751322452999e+00 1.0845538307492394e+01 0 0 0
168 1 1.0129738518121028e+01 4.5071726215327699e+00 1.0398343284360783e+01 0 0 0
160 1 1.3164842617560872e+01 1.3499151988576161e+00 1.0864701825602586e+01 0 0 0
169 1 1.1825168685677117e+01 2.8761676262131251e+00 9.1317204768700808e+00 0 0 0
210 1 1.3351515749519889e+01 1.5393982694399362e+00 1.3350943858582609e+01 0 0 0
219 1 1.1931321861248664e+01 3.2039852218060871e+00 1.1842697745576780e+01 0 0 0
220 1 1.3272412633231809e+01 4.4094457903715769e+00 1.3359075315649683e+01 0 0 0
170 1 1.3488381872410715e+01 4.8176031174743814e+00 1.0754255239860862e+01 0 0 0
159 1 1.1664960728914130e+01 2.7484959061374514e-01 9.0272791353434947e+00 0 0 0
218 1 1.0483875362302516e+01 4.4722848029953681e+00 1.3505600081919930e+01 0 0 0
151 1 1.4911719790444417e+01 2.7953169960733426e-01 9.1687161679820157e+00 -1 0 0
209 1 1.1367939106099854e+01 1.6390793724116826e-01 1.2130910469156728e+01 0 0 0
130 1 1.3360998041220713e+01 1.6088147745946983e+00 7.6072164290663382e+00 0 0 0
135 1 1.3823545870135431e+01 4.8196460378606361e+00 7.8135741992415166e+00 0 0 0
9 1 1.1662560740352641e+01 2.4673181244525311e-01 1.4900865105145039e+01 0 0 -1
134 1 1.0714128285553917e+01 4.6878769400304039e+00 7.6742226464384364e+00 0 0 0
33 1 2.8317170979773869e+00 9.2676886907679670e+00 1.4603107066788658e+01 0 0 -1
172 1 1.4992783586692926e+00 7.7756917129175118e+00 1.0330436113374205e+01 0 0 0
173 1 3.5472189878162168e+00 6.2189776965999890e+00 9.2189244182449048e+00 0 0 0
183 1 3.3527082220941513e+00 9.1044819571104476e+00 9.1848320078455643e+00 0 0 0
222 1 1.7125433086753052e+00 7.4893720198865807e+00 1.3654950409335134e+01 0 0 0
223 1 3.1905882833984975e+00 6.1682670264341093e+00 1.2262025330607520e+01 0 0 0
233 1 2.9409394268369407e+00 8.9223468129763503e+00 1.1897915816660618e+01 0 0 0
224 1 4.8039841123652280e+00 7.5097853480303502e+00 1.3666799083210618e+01 0 0 0
171 1 2.0081964219501813e-01 6.1696584405953487e+00 9.4808743862043983e+00 0 0 0
174 1 4.6195562513124484e+00 7.4584323199468354e+00 1.0648863505355042e+01 0 0 0
231 1 4.4153563902362375e-01 9.0361864118742954e+00 1.2103464644947644e+01 0 0 0
221 1 3.4396976667733992e-01 5.7419753002865903e+00 1.1652587643821617e+01 0 0 0
181 1 1.3645252464559654e-01 9.3010395469429064e+00 9.1438536469734721e+00 0 0 0
136 1 1.6151394591379775e+00 7.3564898832728920e+00 7.8531503818514565e+00 0 0 0
137 1 4.4914765776267416e+00 7.6829248214779291e+00 7.7394929087310294e+00 0 0 0
31 1 2.5820457811637842e-01 9.0279940258598455e+00 1.4846938462912163e+01 0 0 -1
175 1 6.0594485913204652e+00 5.8197328263086456e+00 9.1043913994635588e+00 0 0 0
176 1 7.5391195334092096e+00 7.6841121810634254e+00 1.0928832519894881e+01 0 0 0
177 1 8.6792014311314425e+00 5.9220565686365836e+00 9.2970859922071654e+00 0 0 0
185 1 5.8832742682955805e+00 9.0128750989309871e+00 8.9957810457846676e+00 0 0 0
187 1 8.7550861795688188e+00 9.0890644267802703e+00 8.6220939843344464e+00 0 0 0
225 1 6.2785813200815186e+00 5.8587878944070715e+00 1.2273932711939535e+01 0 0 0
226 1 7.5402995242421609e+00 7.3052645649935704e+00 1.3531154159122822e+01 0 0 0
227 1 8.9389636804080368e+00 5.8236433472427498e+00 1.2102213838426428e+01 0 0 0
235 1 5.9935227210611286e+00 8.8067735184411458e+00 1.2047797606784231e+01 0 0 0
237 1 8.7127059080071820e+00 9.3464219124407411e+00 1.1759683080695220e+01 0 0 0
138 1 7.5135093094030330e+00 7.5087617438759633e+00 7.5783337590760000e+00 0 0 0
140 1 1.3913666238639131e+01 7.4836133455010705e+00 7.8017128075994489e+00 0 0 0
178 1 1.0302833462039770e+01 7.6738749476389909e+00 1.0669054732201918e+01 0 0 0
228 1 1.0008094287639409e+01 7.6790310272834486e+00 1.3334222876067393e+01 0 0 0
179 1 1.2195314761503161e+01 5.7814551135077119e+00 9.2081087350787829e+00 0 0 0
180 1 1.3631236097393055e+01 7.9617689905568758e+00 1.0675238991891179e+01 0 0 0
189 1 1.2137023375151312e+01 8.6627283400271260e+00 8.8386665210880864e+00 0 0 0
229 1 1.1891646587532016e+01 6.3171261534333922e+00 1.2048277807038250e+01 0 0 0
230 1 1.3980040660949543e+01 7.1063165666384007e+00 1.3342740155382252e+01 0 0 0
239 1 1.2127445484719676e+01 8.7066926565408771e+00 1.1807459628920190e+01 0 0 0
39 1 1.1861002830670493e+01 8.7279373015158814e+00 1.4530087764262937e+01 0 0 -1
29 1 1.2131003457761276e+01 5.7759483936530476e+00 1.4873783473452033e+01 0 0 -1
153 1 3.3899096349340603e+00 1.4795688263834714e+01 8.9146746135879678e+00 0 -1 0
203 1 3.4598471250571659e+00 1.4918442252738593e+01 1.1850142466461230e+01 0 -1 0
146 1 1.4717465205951168e+00 1.3646948061629143e+01 7.8538366310177556e+00 0 0 0
182 1 1.5459663298979298e+00 1.0963628955615423e+01 1.0391220274730351e+01 0 0 0
232 1 1.6506967062974718e+00 1.0939285107739657e+01 1.3078565788450090e+01 0 0 0
192 1 1.6514497983583734e+00 1.3498985666569967e+01 1.0415161317133405e+01 0 0 0
193 1 3.2433992134984924e+00 1.1946068887651084e+01 9.0321774331931781e+00 0 0 0
242 1 2.1052952204122075e+00 1.3764986087310643e+01 1.3225202052244464e+01 0 0 0
243 1 3.3866688943419421e+00 1.2085599222008463e+01 1.1981134328237866e+01 0 0 0
194 1 4.7855197930908773e+00 1.3225278328052992e+01 1.0423051284969322e+01 0 0 0
184 1 4.5221910083520225e+00 1.0276951992838397e+01 1.0908577366939070e+01 0 0 0
234 1 4.8355265675306089e+00 1.0421375087455813e+01 1.3514768487757424e+01 0 0 0
244 1 4.8517254138846528e+00 1.3316736140478307e+01 1.3261078819455395e+01 0 0 0
43 1 3.0295951346195134e+00 1.2269364152548286e+01 1.4724903482029077e+01 0 0 -1
141 1 1.7121582441891814e+00 1.0806592647963203e+01 7.6780695659209375e+00 0 0 0
207 1 8.7868662351037070e+00 1.4627871722192319e+01 1.1774659504417869e+01 0 -1 0
186 1 7.5769962811164797e+00 1.0444764268625715e+01 9.9775750725081380e+00 0 0 0
196 1 7.4999093501086458e+00 1.2887490639485135e+01 1.0379553601000296e+01 0 0 0
195 1 5.9040979292830364e+00 1.1822567243351578e+01 8.7144731175904226e+00 0 0 0
155 1 6.2923246608900429e+00 1.4488370284959252e+01 8.7745461422955309e+00 0 -1 0
205 1 6.0458535677884591e+00 1.4832866058701212e+01 1.1712801357215897e+01 0 -1 0
236 1 7.5209052919285053e+00 1.0311700107933470e+01 1.3847630618976307e+01 0 0 0
246 1 7.2296843157009940e+00 1.2998564252673564e+01 1.3630264872555108e+01 0 0 0
247 1 8.8395772177444520e+00 1.1788523802644916e+01 1.2270229238125316e+01 0 0 0
197 1 8.8789809178406127e+00 1.2150319212373304e+01 8.7004803994277857e+00 0 0 0
245 1 6.1375006265446128e+00 1.1693873378662028e+01 1.1823237775324131e+01 0 0 0
240 1 1.3276391868162417e+01 1.0295670629372649e+01 1.3449560320796834e+01 0 0 0
41 1 1.4774398158441734e+01 1.1875863051925020e+01 1.4558520470750244e+01 -1 0 -1
248 1 1.0473761843286839e+01 1.3445820303735855e+01 1.3691924230362805e+01 0 0 0
199 1 1.2013959616730077e+01 1.1987907105434674e+01 9.2739970884275937e+00 0 0 0
190 1 1.3664537210525808e+01 1.0583380942344284e+01 1.0831951174530872e+01 0 0 0
188 1 1.0355198767854377e+01 1.0201540638212254e+01 1.0127188057233230e+01 0 0 0
250 1 1.3173644776519319e+01 1.3646438882309321e+01 1.3353801718619822e+01 0 0 0
198 1 1.0249329350673376e+01 1.3157582499742936e+01 1.0561055271056462e+01 0 0 0
200 1 1.3345713491252848e+01 1.3706439227908794e+01 1.0928932273675297e+01 0 0 0
191 1 1.4617323843642334e+01 1.2208272763821780e+01 9.2528451893821195e+00 -1 0 0
241 1 1.4811811816356897e+01 1.2287644990561329e+01 1.2119451100797976e+01 -1 0 0
249 1 1.1625996904806110e+01 1.2033224657689862e+01 1.2038956240490126e+01 0 0 0
238 1 1.0324506383873699e+01 1.0150599874781632e+01 1.3295573265921789e+01 0 0 0
49 1 1.1878594547200567e+01 1.1881357504117405e+01 1.4842311241829101e+01 0 0 -1
150 1 1.3188003476097643e+01 1.3623780704773855e+01 7.7888103906900037e+00 0 0 0
149 1 1.0405485817789684e+01 1.3835292931411193e+01 7.5343258817395613e+00 0 0 0
144 1 1.0683244688291836e+01 1.0442096962297233e+01 7.6738778113811970e+00 0 0 0
145 1 1.3468434453591803e+01 1.0660054635765754e+01 7.6592926815151365e+00 0 0 0

Velocities

2 1.5538052039157997e+00 -1.3597072920406926e+01 -2.5883531760477498e+00
52 -2.9624558390239453e-01 6.9546110753727701e+00 5.0201061380176020e+00
63 1.3356532270314627e+00 8.4940851850328052e+00 -1.2390493397660130e+01
107 -1.4526787273662778e+01 -8.8096025890783221e+00 -2.8730923389964214e+00
14 1.5553966714065659e+00 -2.3706820054040159e+00 -7.3503512395582051e+00
62 4.7497405634131971e+00 -7.2737846281143774e+00 -4.9801068084573412e+00
64 9.7688318912661973e+00 -4.3027450282432707e+00 1.7576736850201224e+00
12 5.0628978636009458e+00 -5.5285049857042896e+00 -9.2938185330009091e+00
54 -5.0697612592390140e+00 3.0944816432517381e+00 -9.5059926961182661e+00
4 -1.4424768553666553e+01 1.1496130875132000e+01 7.7971451886815295e+00
61 5.5116060566463370e+00 -4.2420249401215848e+00 2.5085109024673997e+00
102 -4.4205990459488351e+00 4.4509705125786949e+00 1.2121913173083261e+01
53 1.3172695994265174e+01 2.9713766268641990e+00 -4.3798916301070276e+00
132 -8.6276966523956187e+00 -1.0805737936846372e+01 -5.9788439725240021e+00
128 -8.9709409115024012e+00 6.5684514403846563e+00 9.4984160497232506e-01
6 -1.1349575152055282e+01 -1.0021518295591454e+00 -8.2935941171022414e+00
56 -9.0471202539213493e+00 4.5411291030844438e+00 -7.5990435899497593e+00
65 -1.6826078805257630e+01 -2.3238974150193146e+00 -6.7523885701550572e+00
67 9.4850370498581889e+00 7.7516226219738442e+00 -1.2745561403656787e+01
108 1.1548941504812641e+01 -5.3866374564521200e+00 7.5685569702157158e+00
109 -1.5526969665057173e+01 6.7474409825217245e+00 -2.1358560680300105e+00
66 1.4401781638131531e+01 1.0373434981041689e+00 -7.5144943643924877e+00
16 -1.5558195268581407e+00 -1.3401167564241394e+00 -5.8122704482908025e+00
104 -1.2793323869115472e+01 -6.1937287003585615e+00 -5.2115259488241392e+00
133 3.6362358114908671e+00 -8.7984552940319194e+00 2.8376204115124146e+00
57 5.7139438044578670e+00 1.2897634392501976e+01 8.5531071107490231e+00
15 2.0316257372684436e+00 -5.1458494090766873e+00 9.1341637340908086e+00
19 -1.4823193713738720e+00 2.3287022511105038e+00 7.7314735551570990e-01
106 1.2781346335686816e+01 2.4169548992532706e+00 -4.5232125357255457e+00
58 -6.6480457569491413e+00 -3.1965972303544996e+00 -4.0418730397430913e-01
68 -3.9543762416126218e+00 -1.0616745129919558e+01 2.7806164642038633e-01
8 2.1816335924495176e+00 2.1107315983588988e+00 7.1148236382974019e+00
10 2.8368591725000423e+00 -1.2845616404662364e+01 7.4084800446451595e+00
60 4.9362684684902769e+00 3.7632985042481657e+00 5.4527420612232476e+00
69 3.7797272617801454e+00 7.6913040123825382e+00 -4.8712564476482090e+00
110 -1.1680757300224851e+01 -6.1003423772780820e+00 -6.8070071911363677e+00
70 1.6156039520254037e+01 -4.7777783628337209e+00 4.0631388044285000e-01
20 -6.8984260568061702e+00 3.6833109195340201e+00 -1.9603062183745156e+01
18 2.2747592638442367e+00 1.4650142331323952e+00 -6.3658335860744755e+00
51 1.0334401574121726e+01 4.6419697823820405e+00 6.0465252055585328e+00
129 2.8256558499247530e+00 5.8904575922291667e+00 -1.2287360472523029e-01
23 -1.0290127794655653e+01 -4.7894627823810705e+00 -5.0659340491208660e+00
22 4.0622230954908307e+00 2.6218653952944808e+00 -4.6182684226274038e+00
72 5.4486129507747858e+00 -5.6811759092358622e+00 -8.7967797201241638e+00
73 -3.8227602761671129e+00 7.4361524686710689e+00 1.7916408986925411e+01
83 1.2045224565168887e+01 -1.2116924431894736e+00 1.7726747334059556e+00
112 1.5759745435273125e+01 7.4033930762641154e-01 2.7202014588934578e+00
117 -5.2483962492658236e+00 1.5824150423775208e+01 -8.2570058012012577e+00
24 2.9966427266626199e+00 1.6322810908678159e-01 6.2294294489878519e+00
74 1.9506706838887857e+00 3.4610439823532246e+00 -4.8505043238199281e+00
71 5.7355668133822124e-01 1.5498132830165652e+00 1.1180927230164739e+01
111 -1.0620365516822217e+01 -6.7598892457756818e+00 6.4590378668261454e+00
116 -8.0428904920362196e+00 -1.0607796869402698e+01 6.5680307026384508e+00
81 -7.6072338982663048e+00 -7.6773271897386923e+00 -4.5245443002342585e+00
26 1.2835674991525659e+01 -5.6577365602817746e+00 5.0485697777790302e+00
75 -1.7596129785613446e+00 2.7071439111608804e+00 -4.1841554886734782e+00
76 1.5838219521174873e+01 1.2802490369102704e+00 -1.7469931760150599e+00
77 7.1091887081316862e-02 1.3593515156024360e+01 -1.2712284166799468e+00
85 -2.1153816160651706e+00 -2.5768251213862130e+00 -8.5077405106963120e+00
87 1.4089664065928263e+01 1.6154007438008904e+00 -2.9122256774370405e+00
113 -7.7787074124151747e+00 1.3657935890790609e+01 1.5282764431776532e+00
114 4.6510262705259136e+00 -8.9263183035910423e+00 1.3517315557632079e+00
118 -5.1093961459831032e+00 -2.3479304398579726e+00 -5.6069746498650943e+00
119 1.2015397362864753e+01 2.1597408063611496e+00 -7.5632191608648682e+00
37 -3.4066954698687453e+00 -3.0801652458612381e+00 3.8683928335066762e+00
27 -6.0714495591199205e+00 -8.1264452220164651e-01 -1.2680711038958851e+01
25 2.4426868032470259e+00 -2.3653043351697072e+00 -1.1540790938503845e+01
35 -1.0675056158768110e+00 4.9954420283188528e-01 -4.7742278312462130e+00
139 -1.1919111783040199e+01 9.4675381404223824e+00 1.0770983609422588e+01
78 -1.4513778019684711e+01 4.3343419467336766e+00 1.5074447298337660e+01
28 -1.0183903169493366e+01 -1.0791170964619572e+00 1.2211640609810685e+01
30 9.4164397558017630e+00 1.0246125839472350e+01 1.9620502685102852e+00
79 1.2252211099283501e+01 -2.9773170947213927e+00 -5.1888574014519087e+00
80 1.4080014595330022e+00 -5.6996571615209719e+00 -6.2453457209236714e+00
89 -7.6035280364818361e+00 -2.0324538034842959e+01 5.4544935634644593e+00
115 2.3294297077879196e+00 -4.4431182056830458e+00 5.2162784687016357e+00
120 8.0381024646918480e+00 1.2164097541169740e+01 4.8020476419796854e+00
21 4.2775522611890340e+00 -4.7689062690739927e+00 3.4325023088362174e+00
82 -5.8020236761640200e+00 -4.1146674061766504e+00 2.8262435089542981e-01
147 -3.3524134284933709e+00 -5.8322477024077077e+00 3.2451368035230783e+00
121 2.3909295190823792e+00 -5.5851873935377929e+00 -1.0365991523086764e+00
32 -1.6116366450207291e+01 -1.3213116044629658e+00 -4.6590340088361021e-01
84 -7.9545121829393572e+00 -5.5773637950070265e+00 -3.7666287047538205e+00
42 -4.1469221739337359e+00 -4.8069399483466260e+00 4.2553910093804506e+00
92 -9.8269757386732515e+00 4.9296711253056644e+00 -2.0930738303827630e+00
93 -5.5362215987464065e+00 3.9014439261770653e+00 -9.9109931645216136e+00
122 9.5375759273205274e-01 8.7810348663069804e-01 2.0120821585762116e+01
34 1.0393656477677748e+00 1.6804121700134291e+00 6.6932467397222908e+00
44 3.5269842344127500e-01 -7.3638468170310576e+00 -2.9058561261505087e+00
94 -4.0526856881594036e+00 -5.3890650310244350e+00 1.5382497451610186e+00
142 6.8468800901756854e-01 4.7469536717597531e+00 -9.1012462992171219e+00
45 4.1822450274986966e+00 -9.4722408694262743e+00 1.5034574395109968e+00
55 6.4585247137306734e-02 -2.2384425578993983e+00 5.9114393471474500e+00
103 1.8295141854002605e+01 8.8192119729322496e+00 -9.9312966169895187e+00
143 1.0258303017061717e+01 2.3392227337547395e+00 -7.5790310383951436e+00
123 -1.4087882759360304e-01 5.4327464676453152e+00 3.4714549669511365e+00
86 1.0685540980030574e+01 7.6048599384216837e+00 -1.4504602614282799e+01
96 -3.5383595787981421e+00 -5.0158826294068959e+00 3.0342983405466675e+00
97 -9.9378405897795563e+00 -4.5323834065273489e+00 -1.2197357623215037e+01
95 -7.3249060266787569e-01 -1.5469543407940913e+01 8.7370920862638659e+00
36 3.9259608507406396e+00 -1.2370415620727867e+01 2.7349052099895443e+00
46 5.2087621175419541e+00 -1.0053044697215645e+01 -1.2769645785864363e+01
124 2.9698767774416730e+00 -8.6026353037130150e+00 4.5193710607695383e+00
148 -4.2581265808190629e+00 -2.6442004017336536e+00 -7.7478470542135569e-01
47 -3.2870160451262134e+00 9.5187854011124049e+00 9.7520892408475213e+00
5 -1.4919068245041391e+01 -2.7805522729644885e+00 2.5077202086567758e+00
50 5.0656572267622497e+00 7.2231671120590013e+00 -5.0075193902857018e+00
90 3.8804405385400038e+00 1.1882845448519834e+01 1.4807685600574242e+01
48 6.1595614001271182e+00 -4.3828107767194846e-01 2.0768370255215798e+00
105 5.2667130326580898e+00 -2.4884291634620759e+00 -2.3430727114962451e+01
59 5.4231445155917779e+00 7.2693059023565398e+00 -1.9001735643167986e+01
88 7.9932621025374517e-01 5.1601347018769967e+00 -9.8318498584993836e+00
100 8.6373931257353824e+00 -6.1075743650718284e+00 -4.1018346440270674e+00
38 3.0760621755537543e-01 -3.6942885641687742e+00 7.0883062814380482e-01
101 3.1600636015791328e+00 -2.7221272048419076e-01 -6.7597540217277787e+00
40 -6.6694999787752574e+00 -1.5735712503584910e+01 -5.4335670092085362e+00
99 1.0804094347185860e+01 -5.4857460331047059e-01 -3.6637794957262209e+00
125 4.2417472462873445e+00 9.5002519902761264e+00 -1.8566980532445958e+00
91 1.0159612877104550e+01 -4.5435872885624429e+00 3.0567548426799580e+00
98 2.7431498571077153e+00 2.7159069808615994e+00 -5.6106094750590438e+00
152 -1.1587082432019180e+01 5.6741418755273554e-01 -3.9884677447546788e+00
163 -3.0893279333230552e+00 -7.8900195800976325e-01 -1.3839813891890507e+00
202 -4.5936820629146693e+00 3.4102562511554080e+00 -1.4075700849126740e+00
213 2.8448935762703225e+00 -6.4522872482725973e+00 -3.9435388850171531e+00
204 3.4746947739385901e+00 7.0013964100690584e+00 9.9413284838195857e+00
154 -1.4978635619645603e+01 6.7503939868172873e+00 2.1276917258003980e+00
162 3.9563601122053691e+00 -8.7639159767924895e+00 9.2194570916572420e+00
214 -1.7278352221064475e+00 -2.2537050501209610e-01 1.2061158057024709e+01