LAMMPS data file via write_data, version 1 Feb 2019, timestep = 500000

250 atoms
1 atom types

-1.0274403899317264e-01 1.5102744038993038e+01 xlo xhi
-1.0274403899317264e-01 1.5102744038993038e+01 ylo yhi
-1.0274403899317264e-01 1.5102744038993038e+01 zlo zhi

Masses

1 26.982

Atoms # atomic

216 1 4.0297504767087098e+00 4.3610128418533742e+00 6.1365925388485474e+00 0 -1 1
122 1 2.2589665248467639e+00 5.8984961032940375e-01 3.6202028327707154e+00 0 -4 -1
39 1 3.1838679147900228e-01 9.2208407642253287e-01 5.2478930913092601e+00 4 -2 5
220 1 1.8930353343024866e+00 3.4853143379696392e+00 4.1170915671383668e+00 -1 5 1
52 1 8.6315835484895898e-01 4.8283864714533031e+00 6.2700772756605003e+00 -1 0 -3
69 1 3.5147416577052124e+00 2.6561600628935955e-01 1.5284649398515844e+00 -4 1 3
215 1 2.3621425285410393e+00 2.6216403234231471e+00 6.8451147243414887e+00 2 2 0
169 1 9.6833023729926193e-01 4.2663333816603932e-01 1.2582426345247977e+00 -3 1 -7
134 1 4.1146292495083641e+00 3.2364906009658378e+00 1.7584037289747445e+00 1 1 -1
195 1 1.6790244560127461e+00 2.9003499142433067e+00 1.5402056638717412e+00 0 -2 -1
12 1 3.9001810640761212e+00 1.8952436668516091e+00 4.4855459133573961e+00 -3 0 3
247 1 2.5801708527653897e+00 4.4737572427393624e-02 6.1629783418302280e+00 3 -1 2
224 1 4.4672654008701436e+00 1.0226493685761040e+00 7.4374630841960894e+00 4 2 0
245 1 -9.5023777734040638e-02 2.5433588968605338e+00 -3.4365765415384733e-02 -5 0 0
14 1 5.2106525296752624e+00 9.7598479783204928e-01 2.6084442907244809e+00 -2 2 3
148 1 5.6794653583280050e+00 1.4804223187581727e+00 3.0106265843751578e-01 -1 2 -2
158 1 7.0080864270201726e+00 2.9511045816687074e+00 2.1759979506354967e+00 2 -3 1
163 1 8.5431257652360362e+00 4.5057996619822509e+00 2.9407455257268245e+00 2 2 0
210 1 7.4524428649425314e+00 -1.3840071220274058e-02 4.1157528464976680e+00 0 0 1
133 1 9.4826981099110643e+00 1.9983264209945895e+00 2.3060443289480097e+00 1 1 2
94 1 6.2028271078409745e+00 1.9093436338574854e+00 5.8590323556470763e+00 -1 2 0
85 1 9.3980959722759891e+00 3.5739591026777555e+00 6.4187246807149370e+00 1 3 -1
16 1 8.3830712363075026e+00 2.5823901399393421e+00 4.5443141304066978e+00 4 -2 2
60 1 7.0599892804341549e+00 4.1791516258569352e+00 6.4904640110980010e+00 -1 0 -2
212 1 8.5127511608202369e+00 4.9139390408131698e+00 3.5541611729409073e-01 3 -2 -3
98 1 5.6778481743592097e+00 4.0225474788082094e+00 3.8932515040817233e+00 2 1 -1
222 1 8.6747718103251881e+00 2.6367515869347744e+00 -6.8267886744802081e-02 2 -3 1
193 1 8.8531803032420555e+00 7.9079827563468030e-01 6.5532590859346458e+00 0 -2 -2
233 1 7.7720436138781821e+00 2.5357742541853234e-01 1.1432955036821690e+00 -3 1 1
108 1 1.0832559858317223e+01 3.5455050014538276e+00 4.0267896095975351e+00 0 7 -3
74 1 1.0983004967685954e+01 3.8666956050771657e+00 1.7321759052697250e+00 2 4 -3
138 1 1.5042629189062861e+01 1.8353008209978476e+00 2.9996452872204600e+00 4 4 -3
130 1 1.2813987792407447e+01 1.5516296700410720e-01 4.8335758014756660e+00 0 1 -2
15 1 1.3218724895823671e+01 3.3414459110956498e+00 3.6263941297381699e+00 -1 1 -1
211 1 1.1494129850133261e+01 1.4552639282757598e+00 2.8199323483424816e+00 -2 -4 4
196 1 1.3280571914040879e+01 3.5883257212091131e+00 1.1150934005660456e+00 2 6 3
35 1 1.1896140976859195e+01 4.8301505850177460e+00 6.1419726504847869e+00 -2 2 0
236 1 1.1457975425700072e+01 1.6792040061464752e-01 3.8027109610567528e-01 -3 2 2
183 1 1.1500967535566389e+01 2.2767415410809644e+00 5.9583849027892111e+00 -2 3 6
8 1 1.4905040932088855e+01 4.6540210715588426e+00 2.5202777252874022e+00 5 -3 5
125 1 1.3522632790459621e+01 9.8640074678534839e-01 9.7718093162271447e-01 2 -2 0
228 1 1.4560714080366141e+01 2.9729553691728849e+00 6.0547754711835235e+00 -1 4 3
87 1 1.0118665862243795e+01 5.7850365676809334e-01 4.4767595738395647e+00 0 2 -3
175 1 1.3200796539890421e+01 1.1122263177230918e+00 7.3606137414342472e+00 0 -3 0
189 1 1.9913729324907053e-01 5.1314875177201396e+00 3.7131288171487531e-02 0 0 2
43 1 3.0931540503611377e+00 8.6494025119267199e+00 1.4673504081184197e+00 -3 -1 -6
83 1 4.2119714061635962e+00 6.3915404270828500e+00 -6.6741356378891586e-02 1 0 -1
100 1 2.3147235250272691e+00 8.1478349692477892e+00 3.7179677427940425e+00 -4 -1 0
140 1 3.8199346012980997e+00 5.8666383311330801e+00 3.5929049329906562e+00 2 -3 -2
78 1 8.6543139447498829e-01 6.1225121642907592e+00 4.2740356384262075e+00 3 4 2
7 1 7.4195213924120307e-01 7.1767345095610056e+00 1.6165297615350360e+00 0 0 1
166 1 1.3401908426155511e+00 9.7979997058323214e+00 6.8309684781746878e+00 -2 -4 1
73 1 3.5006013349855647e+00 6.2608420894478387e+00 5.7589625077065056e+00 -4 0 1
72 1 2.6017428776402967e+00 5.3907706671115969e+00 1.8340815259829579e+00 -2 -1 1
161 1 4.9213248686090143e+00 8.1453982623377570e+00 3.7151437212090466e+00 3 -2 -1
185 1 5.5420681587151233e-01 9.0187559934406849e+00 4.4171798593148903e+00 -2 2 0
63 1 1.3723020955898930e+00 7.2430568293233062e+00 6.6970476823880052e+00 -3 2 1
213 1 3.3084323589060847e+00 8.8055216452750038e+00 5.9945603275069841e+00 2 1 0
126 1 5.7662253697087937e+00 8.3215040052469718e+00 6.4585338737366733e+00 -4 4 0
204 1 5.7831974627592011e+00 5.3726956673553090e+00 2.1229811586252230e+00 1 -2 -1
147 1 6.0236664852746875e+00 6.0476190969901991e+00 5.1154423607380695e+00 -2 0 0
84 1 7.7987647562925471e+00 6.7175235674354434e+00 6.4304529341529912e+00 3 1 -1
13 1 8.1030134056455339e+00 7.0092749810509538e+00 2.2291497816436436e+00 -2 -3 -1
225 1 9.3238275445119978e+00 5.7096154868669187e+00 4.7781691171318279e+00 -1 2 -4
46 1 7.1851975610749435e+00 9.9389674897411222e+00 6.4343137261834924e+00 -3 -2 0
203 1 9.4661493327107724e+00 8.6537471586493400e+00 5.3973052641758157e+00 -1 -2 2
58 1 7.3445335201119271e+00 8.3738924313271657e+00 4.4342855638654513e+00 1 -1 -5
136 1 7.1560935798027066e+00 9.9877872419243410e+00 3.3285374333372912e+00 0 -3 -3
187 1 8.0682843056400841e+00 9.0153938867987353e+00 7.2363475522347698e-01 -5 -2 0
207 1 5.8936732575332487e+00 7.8220177250889291e+00 1.0920824277353141e+00 0 1 2
37 1 9.2771304323586659e+00 9.9384056733209540e+00 2.5507936263180575e+00 2 2 -2
86 1 9.8675448916685546e+00 5.9356279420762013e+00 7.4862070406707488e+00 -2 -1 -1
124 1 5.0321543982264325e+00 1.0030797552842674e+01 7.4975521021098155e+00 2 3 1
91 1 1.0616547523993001e+01 6.3626965747396689e+00 1.4665820579824318e+00 -4 -1 2
70 1 1.2360231714184234e+01 5.7686181755025965e+00 3.4614462749465265e+00 -1 0 -1
180 1 1.4064895348923788e+01 6.4155002410839108e+00 5.8033032057237541e+00 -1 1 1
168 1 1.2113336480563621e+01 8.8011897652012916e+00 1.8936805561638623e+00 -5 2 -2
76 1 1.1674384189440463e+01 7.1703155917601809e+00 5.6532434416598747e+00 5 -1 -2
31 1 1.0650550053193546e+01 7.7241647825189297e+00 3.4698521322243487e+00 2 -3 3
66 1 1.0435943112344342e+01 9.8104089712510625e+00 5.5527736492666202e-01 1 1 -2
116 1 1.4422619330945828e+01 7.5957411405785313e+00 3.3615161855254683e+00 -7 -1 1
188 1 1.4204771166824594e+01 8.4439204913296741e+00 3.0556543753737531e-01 -9 -6 -1
230 1 1.3518786415308119e+01 9.9193697513720931e+00 3.7552692596849244e+00 0 -4 1
92 1 1.3200280552420166e+01 6.3572306924229087e+00 1.2376871728443040e+00 0 3 4
32 1 1.3789135818679974e+01 8.8229906274683145e+00 5.6813017425112662e+00 -1 2 0
11 1 1.1609327598267390e+01 9.5742087046171704e+00 7.1774142270799430e+00 -2 1 0
53 1 4.8013124023095157e+00 1.5058502846908041e+01 5.1745373819234333e+00 -4 3 0
164 1 4.0584737829118076e+00 1.2849358189542365e+01 3.7153732887874713e+00 1 -2 -1
165 1 1.2818890484534458e+00 1.3326098740381797e+01 8.2320763338440661e-01 -4 -3 3
27 1 4.8094385363874572e+00 1.0326265474944996e+01 2.6897842078979841e+00 4 1 3
40 1 1.6594346575642122e-01 1.0068730355509633e+01 1.9884693697225653e+00 4 -2 5
144 1 2.8081357880632480e+00 1.1176573356365491e+01 7.2760591395860379e+00 5 0 -1
5 1 4.1197603643793634e-01 1.1604635721314189e+01 4.8463180914614190e+00 3 -6 1
81 1 2.0640666481606718e+00 1.1242552039799278e+01 1.8625486187521914e+00 -2 -2 -3
102 1 1.7314890275088426e+00 1.3478038598816873e+01 3.1682853283574235e+00 2 -1 -4
115 1 3.7749237422048543e+00 1.2653717981756445e+01 1.3588372191911142e+00 2 -1 3
109 1 2.1052125038009817e+00 1.2819236651836089e+01 5.4969342575678173e+00 3 0 -1
75 1 2.5610639804491244e+00 1.0557512843994671e+01 4.0111262147988285e+00 -1 -2 4
57 1 4.6562955050369998e+00 1.2869847977335366e+01 6.8239409781838409e+00 2 -4 1
226 1 9.6758471846099905e+00 1.4673791179871269e+01 2.0676675054524458e+00 -1 -2 0
234 1 8.5468492963496931e+00 1.3201074045346372e+01 6.0575981065716444e+00 1 -1 2
23 1 9.8126560779023730e+00 1.2540833492845383e+01 1.3206111930817204e+00 -2 2 4
18 1 6.9201386346994269e+00 1.4508441067143217e+01 7.2836927003635648e+00 0 0 0
157 1 9.1113745295054507e+00 1.1098776542224735e+01 7.1477492323157792e+00 3 -4 2
205 1 6.9155685098210720e+00 1.1721368779316620e+01 1.5311050836988995e+00 -1 -2 3
118 1 8.6326989391888542e+00 1.2686397295258255e+01 3.0117691215114517e+00 -1 -2 4
132 1 5.8896768510680113e+00 1.4258515322049233e+01 2.3279098686580877e+00 -6 0 -1
88 1 8.8941291669105702e+00 1.1107108072606930e+01 4.8695727593183342e+00 1 -2 1
22 1 6.4274304485468647e+00 1.2742385188772896e+01 4.6719601889275229e+00 -3 -1 -5
231 1 5.2149055790185281e+00 1.0570405855907609e+01 5.2673507733531588e+00 1 0 -4
149 1 7.5769256910480438e+00 1.3481576820145731e+01 8.0880534056967018e-02 1 2 1
56 1 5.2694298689597723e+00 1.4197488784523213e+01 2.3280350657834958e-03 1 -3 0
238 1 1.3080499690053408e+01 1.2624703298891113e+01 4.3048267695012532e+00 -3 -2 -2
155 1 1.2433880824061083e+01 1.4217098011563204e+01 2.3864835603146415e+00 -2 -4 -2
237 1 1.2825808122427809e+01 1.0600753066716699e+01 1.1556648586196386e-01 -3 -3 2
151 1 1.1061302571337716e+01 1.4690240097808339e+01 6.6582302972789513e+00 -1 2 1
95 1 1.3737568862384844e+01 1.3774675634002813e+01 7.3613924392330443e-02 -1 -4 3
208 1 1.1140186119877409e+01 1.2229008427582659e+01 6.0628584792103997e+00 1 0 0
171 1 1.4848033439012418e+01 1.3696328380430707e+01 5.8782892739868853e+00 -3 1 1
219 1 1.3653501565998681e+01 1.1255627393379033e+01 6.4445716819277621e+00 -4 -2 1
176 1 1.1440592012048866e+01 1.0329110857951788e+01 4.5908865679891404e+00 -4 0 1
162 1 1.4794013670919002e+01 1.2235054379775157e+01 2.3012811616670450e+00 1 -3 -1
194 1 1.4682114001723789e+01 1.4470790739750472e+01 3.1634847127762691e+00 -3 5 0
3 1 1.0453242482181565e+01 1.3569176966208772e+01 4.1129926034779709e+00 -3 -3 2
201 1 1.1838200531047233e+01 1.1671356002261968e+01 2.6830661246483167e+00 -3 0 2
249 1 1.3554700111762077e+01 1.3225160891464220e+01 7.1541105064422839e+00 3 -2 1
167 1 4.2780107388156585e+00 6.3436789572126440e-01 1.3460177635546355e+01 2 -2 0
80 1 4.9547418342953176e+00 4.0259125972527858e+00 1.0484999681852139e+01 0 2 3
172 1 4.1604857290881314e-01 9.4691112887751050e-01 7.6706893472643474e+00 1 0 4
170 1 1.3068267293512112e+00 1.8981604459126924e+00 1.0621811298253053e+01 0 -4 -4
30 1 -9.7825514261286273e-02 4.7714063547112762e+00 1.2594041422232385e+01 -2 1 0
173 1 2.4109747214133663e+00 3.8844440913339079e-01 1.2164129686271199e+01 -5 1 3
229 1 3.3276770545830958e+00 3.2306633715055679e+00 9.4132231243773834e+00 0 4 1
141 1 1.9613387171983772e+00 4.2371440720022209e+00 1.3722946082607578e+01 -2 -1 -5
248 1 6.3449654927122001e-01 2.2540527554233929e+00 1.2876060734518537e+01 0 1 -5
181 1 2.7368192601506030e+00 1.5167211616059313e+00 1.4727348113038181e+01 -1 1 -1
9 1 8.6262276580547392e-01 3.7348481545143226e+00 8.9873778664089503e+00 5 0 1
113 1 4.9211739777112404e+00 4.8602492446514107e+00 1.2866311782329054e+01 1 -1 -3
21 1 3.4163062163028171e+00 3.2086321091381116e+00 1.1994209957321978e+01 0 0 -3
223 1 4.3663919229827988e+00 1.0717817146355573e+00 1.0415247167085633e+01 0 0 -3
28 1 4.1945724480850215e+00 3.5251362034143696e+00 1.4734025498935303e+01 4 -3 1
49 1 7.2649533301854357e+00 2.8388195638967333e+00 1.0491935673730534e+01 -1 -1 0
48 1 5.9020212655380986e+00 2.4458772760777321e+00 1.2653558954951608e+01 2 1 -1
54 1 7.1276631736334410e+00 3.4697565895497218e-01 1.3803342659337799e+01 0 -1 -2
51 1 9.8489285041360937e+00 4.1647046037282154e+00 1.3424546579708469e+01 0 1 -2
154 1 9.2031512854677437e+00 4.4868453741991114e+00 1.0991823854243597e+01 -5 -1 -1
198 1 8.7722007741928518e+00 2.7378147375434847e-01 9.2438273012648935e+00 2 1 3
96 1 6.5710847264669994e+00 9.1018024115736162e-01 9.0446256065901984e+00 -3 0 1
68 1 8.3737385667552111e+00 2.1516877516109516e+00 1.2709525928387098e+01 2 1 0
71 1 9.5948826049714153e+00 4.3654090190485839e-01 1.4266465279590085e+01 -4 4 -1
90 1 9.8800190432301633e+00 2.1739977441137119e+00 1.0539379832595285e+01 -2 3 2
6 1 5.3008277204360317e+00 3.1970712751965942e+00 8.1953018072767083e+00 5 0 1
79 1 7.3123554549367329e+00 4.9461968087038910e+00 8.8798597241584840e+00 -1 2 -1
186 1 6.8947324914971038e+00 4.9336005884540262e+00 1.2262705742882142e+01 1 0 -3
25 1 6.4678086231155962e+00 3.5968123433761834e+00 1.4902737296712353e+01 1 0 -3
202 1 8.5457563829290297e+00 2.5127327333862453e+00 8.5547293844191383e+00 -2 1 5
135 1 1.4318533795052112e+01 1.3650338983709067e+00 9.7088893604075857e+00 0 -1 0
107 1 1.2520587718093523e+01 5.8130425898063087e-01 1.1405094355764362e+01 0 2 -1
150 1 1.2101845607792241e+01 4.5247896556358409e+00 1.2071734893142272e+01 -2 -1 -4
120 1 1.1071214979531293e+01 2.1168975591414076e+00 1.2528750516754286e+01 0 2 2
82 1 1.0888187140917633e+01 3.8227596388485416e+00 8.5379325357453748e+00 -2 -1 -7
67 1 1.4149106380392574e+01 3.5817925628096150e+00 1.0977543629736862e+01 -3 3 0
97 1 1.3015257845778564e+01 7.4849980005973193e-01 1.3704517197308794e+01 -2 0 1
106 1 1.3509454663037786e+01 3.8927086656248715e+00 8.1300034763313800e+00 -1 -1 0
50 1 1.3142093651424055e+01 3.0761326797054505e+00 1.3675454555625189e+01 -2 2 0
19 1 1.2148695235457387e+01 2.6512933241776802e+00 1.0093285258693371e+01 1 -2 -1
200 1 1.0634989168380212e+01 1.3915758416390580e+00 8.3428820652414526e+00 -1 -1 -1
114 1 1.1111812200396816e+01 2.8982018240895506e+00 1.5045977101993707e+01 0 2 -1
111 1 3.8006011663704813e+00 6.1547514630328681e+00 1.0485769721017384e+01 2 2 -1
178 1 1.5087102899041378e+00 5.0064879173105252e+00 1.0830782553297382e+01 2 0 -2
159 1 3.1958932047011096e-01 7.2329624655965548e+00 1.2257716336529899e+01 5 0 -2
2 1 3.3913757268826688e+00 8.8534914715826112e+00 1.3866597789481141e+01 5 -5 2
26 1 2.7661097286004570e+00 6.4858558005115778e+00 1.2595956132848986e+01 8 2 -1
129 1 3.0652394134250747e+00 8.9178135439633746e+00 1.1384539255420561e+01 2 0 2
110 1 4.1494557820164095e+00 7.2283022318199386e+00 7.9220314597262806e+00 -3 -2 1
191 1 1.3258612455419974e+00 7.3640974585101038e+00 9.8210916831095449e+00 1 0 0
103 1 2.7474129171665709e+00 8.7592251616189429e+00 8.6692991979477263e+00 2 4 -1
99 1 2.7884239476409896e+00 5.3594474190085242e+00 8.4350816483199083e+00 2 -1 6
139 1 1.8728205516063554e+00 6.9861109672123414e+00 1.4666080730533119e+01 0 -1 2
152 1 -9.2667374773443001e-02 5.9311312407995773e+00 8.5510563546680718e+00 -1 0 -5
142 1 4.9279554121024924e+00 7.5111304690793199e+00 1.2484597859261521e+01 -2 -1 0
101 1 1.1763500134929816e+00 9.3687910163631134e+00 1.5058678774463285e+01 -1 -1 -1
235 1 5.5330650375553807e+00 5.6737033425110619e+00 7.8483369211655072e+00 -4 1 2
221 1 9.5104507260359696e+00 6.8108633112901762e+00 1.4478173271518694e+01 -1 -2 -3
117 1 8.2667864935762889e+00 6.7054145524300566e+00 1.2411056845772523e+01 -2 2 6
246 1 5.3873665724756652e+00 8.6465552644939994e+00 1.0061410773387641e+01 0 2 -3
153 1 6.5882055769307089e+00 8.7860992128946727e+00 1.3945578079731280e+01 4 4 -2
93 1 7.2091952429971951e+00 8.2515360117928651e+00 8.6151062075467877e+00 2 2 -3
55 1 7.1064229331557245e+00 8.4360407584281383e+00 1.1538486961615224e+01 0 -1 -4
146 1 6.3043714370688670e+00 6.3155739688925978e+00 1.0329684914899714e+01 4 -1 0
184 1 9.5393664827144633e+00 9.1662149614286808e+00 1.2983483461673014e+01 1 2 -2
36 1 8.9809939042926583e+00 6.7130988212657172e+00 9.6991636464596365e+00 2 4 0
38 1 9.5903478918628586e+00 8.5422889277607243e+00 8.1053061685565417e+00 -1 0 6
105 1 6.5491421048078218e+00 6.2998194016311864e+00 1.4177506221820853e+01 2 1 -4
179 1 1.2741402457261115e+01 6.5597927363685642e+00 7.6772068572309538e+00 0 -1 0
250 1 1.0485000873030552e+01 6.7704283795524924e+00 1.2010115787910495e+01 -3 1 -1
29 1 1.3888480822904844e+01 6.5771835704628732e+00 1.3708221590784577e+01 -1 1 1
45 1 1.4467304370553030e+01 8.9753237174103919e+00 8.1630301887529697e+00 0 -3 1
33 1 1.0035890737743859e+01 8.9382875530018957e+00 1.0591452047325117e+01 -2 2 1
17 1 1.2230180138823293e+01 8.7936205722305605e+00 9.1249265631640810e+00 0 -5 -2
59 1 1.1308459503580982e+01 5.9453008539519381e+00 9.9969250758978898e+00 1 4 4
44 1 1.1937448344967311e+01 8.0038787004647052e+00 1.4866882830598975e+01 -1 3 -1
104 1 1.3733892176457438e+01 9.6140525735133178e+00 1.3124304296098876e+01 -6 1 -5
145 1 1.2607309540696523e+01 7.9578165455582539e+00 1.1774167762048346e+01 -1 2 -3
239 1 1.4053366003188824e+01 6.3151462800200404e+00 1.0704968691027911e+01 -7 2 0
77 1 1.4443284248454873e+01 9.2327608780442283e+00 1.0612154571723302e+01 -1 2 -2
4 1 1.1762130962183369e+01 5.5649202621629641e+00 1.4615177677173159e+01 -3 -2 -1
241 1 6.5917922586863542e-01 1.2038450161574112e+01 8.0189949440522330e+00 1 -2 -1
123 1 2.8746714727702241e+00 1.3879056027874336e+01 1.4205032928169848e+01 2 -4 -2
89 1 3.1953601952570985e+00 1.1374133289094003e+01 1.2288921010833970e+01 -4 -5 -5
160 1 7.2402793563446899e-01 1.0110463104098541e+01 1.2324749251217202e+01 4 -2 0
42 1 6.5282155195934788e-01 1.5049103813690721e+01 1.4131611932878139e+01 1 -3 -2
64 1 1.4094203727139381e+00 1.0550796106212642e+01 9.8014813469728512e+00 0 3 -2
214 1 1.4837299479397339e+00 1.3540004579417619e+01 1.0654828716462541e+01 -1 -1 0
156 1 8.9652312877860574e-01 1.2994592852021569e+01 1.3186418059295624e+01 2 -1 1
47 1 2.2079062193237831e+00 1.4231709655589306e+01 8.2728929870480847e+00 -3 1 -6
1 1 2.6925511653026821e+00 1.1427450111822285e+01 1.4465842009200104e+01 2 0 -4
112 1 3.8951155903515868e+00 1.3598220171172549e+01 1.1687828753223803e+01 1 -1 -2
199 1 4.0317166177143386e+00 1.1114027121431361e+01 9.6216231748598240e+00 -2 0 5
174 1 4.8952873079607011e+00 1.0207619312515622e+01 1.5026669080851102e+01 -1 3 -1
131 1 5.0859653583165398e+00 1.4144206084543322e+01 9.2193393404229678e+00 0 3 -4
127 1 6.6273203383730959e+00 1.1947656061058252e+01 8.0442817519418597e+00 4 1 5
137 1 6.4490918063713032e+00 1.5063038409208682e+01 1.1448487643554667e+01 3 0 1
192 1 8.9487813931920837e+00 1.4459632489463944e+01 1.1850786927581957e+01 6 -3 2
34 1 9.7223838016679238e+00 1.0762178112290375e+01 9.4591684335816559e+00 2 0 0
227 1 5.4148163250724313e+00 1.0260192170316717e+01 1.2154234779450354e+01 1 2 -3
217 1 5.7965331663861752e+00 1.2297228012054854e+01 1.0376294955342519e+01 4 -3 -1
62 1 7.4895454387442939e+00 1.0313873049872523e+01 9.4263363779943390e+00 0 -1 1
232 1 5.0423720348910903e+00 1.1962984013448784e+01 1.4221485815921204e+01 0 1 3
243 1 9.5608516401702239e+00 1.3238456478159598e+01 8.1987165783726379e+00 3 -5 4
242 1 6.9454814398363292e+00 1.2975181493799486e+01 1.3095137019714620e+01 -2 2 4
177 1 7.8843681801032934e+00 1.1019752283468708e+01 1.1634755644526308e+01 6 0 2
206 1 9.4252309584035778e+00 1.3259453973724421e+01 1.3700522978279967e+01 0 3 -1
190 1 7.8417656768535222e+00 1.3056318746203113e+01 9.8416264331929053e+00 3 -1 2
182 1 8.0819236546821571e+00 1.0957654236640527e+01 1.4266089353477390e+01 1 0 3
41 1 1.0771571658640894e+01 1.4368947124623984e+01 1.0181576957865445e+01 1 2 2
218 1 1.3745617743341121e+01 1.1247309144277539e+01 9.0330041669901160e+00 1 0 -5
61 1 1.1721053654537858e+01 1.2438471941054917e+01 8.7591154053844562e+00 1 -1 -1
209 1 1.1767648898377161e+01 1.4217236509582911e+01 1.2895383205003206e+01 -1 3 0
24 1 1.3656825427575448e+01 1.2434813462621738e+01 1.3201386566576300e+01 5 0 2
128 1 1.4894293376964789e+01 1.1749161198745972e+01 1.1099898178262320e+01 1 0 1
65 1 1.5053553902633453e+01 1.1379211537485073e+01 1.4869478794490549e+01 0 2 -2
244 1 1.2258345958823025e+01 1.0517462597004753e+01 1.1055161654170407e+01 0 -2 4
197 1 1.1430243392536077e+01 1.2938048230702368e+01 1.5048080303662106e+01 -3 -1 2
10 1 1.4980349741384501e+01 1.5064073286408240e+01 1.1711382336422638e+01 3 -1 -2
20 1 1.4801840178572919e+01 1.4220712645133897e+01 9.0195478290269548e+00 1 3 2
121 1 1.1068718984753115e+01 1.1081856104859536e+01 1.3339898644961677e+01 0 -2 0
240 1 1.2773520950073216e+01 1.4871868175477706e+01 8.9262131198943120e+00 2 -1 -4
143 1 1.3253451119298777e+01 1.3421396501408486e+01 1.0740689156773371e+01 -3 2 0
119 1 1.0270568115885650e+01 1.2018409028319823e+01 1.1356760636706960e+01 3 -4 3

Velocities

216 -1.5541199389324923e+01 9.0436387849582356e-01 2.1458572977537194e+00
122 -3.7027775111129100e+00 -1.1760210308350377e+01 3.9295543524233474e+00
39 1.4416859572448404e+00 1.8746354180782285e+00 4.1157874974016986e+00
220 1.6089280090420331e+01 -1.0294832723047944e+00 5.3755113564824430e+00
52 -1.3048151185089409e+01 4.4202434638587915e+00 -4.1978076081621118e+00
69 5.3666572411095803e+00 2.2122973167682138e+00 7.0010824389636399e+00
215 -1.1979916641399537e+00 -6.5694889514268056e+00 6.3146910312486479e+00
169 1.8410921048753153e+00 3.8601403797835543e+00 7.0367182203107852e+00
134 -9.5451396190874416e+00 1.9054847808872784e+00 4.9310915881313946e+00
195 -1.5448437109690911e+01 1.3226733167545108e+01 -7.0409592320115233e-01
12 -8.7388917947057241e+00 -1.6524089016751805e+01 -4.8279414879521798e-01
247 1.3730946902923393e+00 -8.2303150885451544e+00 1.4636679525454655e+01
224 -1.2820387838229738e+01 1.3772693780124530e+00 5.1688444831047233e+00
245 3.6634417572168179e+00 1.0017896353163916e+01 -1.4988884554172317e+01
14 8.8283259989037077e+00 6.5862653888152565e+00 -2.6400068633554863e+00
148 4.6990500609278145e+00 1.1203189241891895e+01 6.3080268780108693e+00
158 -2.3110024218999827e+00 -7.8631266850749726e-01 7.0841451301874905e+00
163 1.8782445881521554e+00 1.6448125451251330e+00 -1.0005065534447134e+01
210 -3.0049545984117398e+00 -1.3902888668137996e+00 -7.6103675781937374e+00
133 5.3409963236584606e+00 -2.9702008079358397e+00 -1.8864665055785410e+00
94 6.0529910273845990e+00 -4.4300744774483949e+00 1.2025677922988530e+01
85 1.4626895643733892e+01 1.0018585739577932e+00 1.9535473980821239e+00
16 1.8814178807282089e+00 7.3821299889766703e+00 -3.8660836600105308e+00
60 -7.7273239094012132e+00 5.8000178768957209e+00 2.4630434485442447e+00
212 6.9208703868499528e+00 9.1255174192743311e+00 6.1607740213080140e+00
98 -3.2568624704890028e+00 -1.3797544575412136e+01 -8.0981580365936949e+00
222 2.2693923234850377e+00 9.1130556968628600e+00 -9.3694890486386129e+00
193 -5.9174730056375022e+00 3.8401878108902467e+00 1.2602050978948894e+01
233 1.4550565057533728e+01 2.7029087812486874e+00 6.5888128454879569e+00
108 -8.9062149622282760e+00 3.5922627091876875e+00 9.5595121282308089e+00
74 -2.3417964869515533e+00 4.5616235480391742e-01 -7.1640719274741400e+00
138 5.8226032520784861e+00 -2.0334464329967638e+01 2.8950925722776515e+00
130 -1.8667799335810686e-01 4.0615704349219888e+00 -4.1956245325079591e+00
15 9.5556709485820157e+00 -4.1283711710900821e+00 9.6467639623380332e+00
211 2.6517524066013345e+00 2.0904651386633728e+00 7.7566488733750463e+00
196 -1.0173169008491858e+01 -1.3711073851711904e+01 4.1938848612089263e-01
35 -3.1756337627956319e+00 -4.4981210096587159e+00 -1.1305649403001500e+01
236 4.4279650640069281e+00 -2.7714689483731130e+00 -8.2461679645417929e-01
183 -6.2175315312945036e+00 2.7039205210141333e+00 -4.6265733393908288e+00
8 9.5084033616550858e+00 -5.0366274098632244e+00 3.6895869400352379e+00
125 7.0664776960492564e+00 1.9038001193159872e+00 -5.1506428142543150e+00
228 2.1171647764602744e-01 1.1708631754108961e+01 -3.7908782205068237e+00
87 -1.5914780582305947e+00 1.6827882347670695e+00 6.0313797656897039e+00
175 -1.2349671018708749e+01 -1.2616083174834225e+00 5.0781721069058925e+00
189 2.7273682297359714e+00 7.3828026227029913e+00 -4.3228705253355511e+00
43 4.9618918894717625e+00 5.8799314389609247e-01 -7.8025646083822364e+00
83 -8.5867403262396724e+00 7.7285116885289962e-01 -9.7073285136763254e-01
100 -1.1189310519284401e+00 -7.8507271123361058e+00 2.8000798462462299e+01
140 -4.1773371600217173e+00 -6.1982822005469873e-01 -3.5525613610921014e+00
78 1.3093318460998988e+00 8.5963482523314401e+00 1.6760216811742072e+01
7 2.4727187508057318e+00 -2.5626168708449248e+00 -7.8915343838651024e+00
166 -5.7707166705765645e-01 1.1404679969026072e+01 1.2292679361775230e+01
73 -4.6036996354460973e+00 1.8830104523417468e+01 -5.6290212446538748e+00
72 -7.9186195774187187e+00 -1.0354239498799068e+01 -1.1493369660249007e+01
161 5.0538010605544026e-02 -4.6364392824269345e+00 -1.1692891934271843e+00
185 -2.1474292147953498e+00 -5.0592628596090830e+00 -1.8813521431074955e+00
63 2.2937243643760321e+00 8.9293308204352728e-01 -6.8238483596307542e-01
213 -3.7840665435261105e+00 -1.4507003555392204e+01 1.2068183190527302e+00
126 -2.7578297224436903e+00 7.7606959500260784e+00 9.2682042593417044e+00
204 -9.1806399079291499e+00 2.0935043800887751e+01 -7.5779235225469552e+00
147 -8.4904946197556697e-01 -3.4655293666838893e-01 5.5374654671353003e+00
84 -8.2163992551697529e-01 7.6850619159256239e-01 3.2962097600251208e+00
13 4.8298824324230862e+00 -1.4866714300744189e+01 9.7367942907088203e+00
225 -4.2413953034518297e+00 5.5220336369611287e+00 9.5481988987587485e+00
46 -1.5236471327654765e+01 -4.7040207121702764e+00 -1.1594122864709757e+01
203 4.5527270866537508e+00 1.5182632786967882e+00 -6.8455551725210313e+00
58 1.0251094786743604e+01 -8.8773490213170163e+00 9.9172388269357707e+00
136 5.0219632852475016e+00 -7.6824929043836807e+00 -8.8911254879465886e+00
187 1.5633506036455485e+01 1.1390173565236585e+01 -1.1300101433463070e+01
207 7.8913544048122022e+00 -1.1571054345612188e+01 -4.6585215897917172e+00
37 -2.1732125511752143e+00 3.9346723971942530e+00 -2.0320315439807111e+00
86 4.3306266820947998e+00 -9.0244111377170597e+00 -6.2119353561193096e+00
124 -2.4188388426628921e-01 5.1283775033337369e+00 -9.7316542067324914e+00
91 -6.8024789818614915e+00 -1.1634770196810909e+01 -2.6805347945834277e+00
70 -3.2010675368341599e+00 8.3591207259641376e+00 -5.2664432415257059e+00
180 1.8827759957077357e+00 -2.5847701661169475e+00 3.6302239931633200e+00
168 -5.6430209463462031e+00 2.9425809843092310e-01 -3.6785009149866918e+00
76 7.9984335238882185e+00 2.4202520797784901e+00 7.5145496277392336e+00
31 -6.3496535978813373e+00 -4.6851164105555529e+00 1.7836436781375276e+01
66 9.2497646629424080e-01 -4.5098052490156046e+00 -1.9510866828634623e+00
116 -7.3206473099126619e+00 -1.6448744155765247e+01 -5.2190271670713861e-01
188 -4.5430765592868720e+00 -3.4815107242896843e+00 2.3722633745772717e+00
230 -1.1490978299033097e+01 -8.1979034583737835e+00 -3.7337625707128130e+00
92 -8.6429427117695634e-01 -5.3019254287980973e+00 6.2770199036133487e+00
32 4.8593726967291788e+00 7.3793657717007255e+00 -2.8469982541650940e+00
11 -5.6135417517538055e+00 5.0206480154806092e+00 -8.5939835938916413e+00
53 6.7233526748940005e+00 -1.2848010792558267e+01 6.0153784239168351e+00
164 8.5526696298431197e+00 1.0832195358115825e+01 -1.4268261729080951e+01
165 2.5674660771715505e+00 9.6805166459342615e+00 -4.4779375734863178e+00
27 6.6549368737580314e+00 -9.7489474190141543e+00 7.1629272893274623e+00
40 -9.9623163200436704e-01 -2.9091549488909885e+00 -1.4169617823254623e+00
144 4.5225806703000577e+00 -1.5794991701990611e+00 -3.6197782412652928e+00
5 5.6359932276150975e+00 -2.5825421939015722e+00 -3.9643740057126386e+00
81 9.1783578123010001e-01 -4.6581672469078672e+00 1.0027904108483497e+01
102 1.0198596783778591e+01 2.6619085692333702e+00 4.6302494577556885e+00
115 -6.4398323561167947e-01 8.7414704854736041e+00 -2.0953114271615885e+00
109 -1.5575713736102742e+01 -1.4273287817271100e+01 2.7337212509910365e+00
75 -3.6815478912534312e+00 -8.2815493133417171e+00 9.5496781862931951e-02
57 -4.3353907339511899e+00 -5.4464648936299653e-01 1.2215313308779074e-01
226 -2.0459152402935286e+00 1.3863572911488098e+00 -3.2164798193337543e+00
234 6.2707278875811970e-02 -4.9632027315403553e+00 -4.1542341865130643e+00
23 9.9833987855830850e-02 9.3967765710479845e-01 -2.2537497700711469e+00
18 -9.5248902754536182e+00 8.3160151368188318e-01 -1.1217555216349513e+00
157 -8.2963222528631526e+00 -5.9144405510328202e+00 -2.3643414314100557e+00
205 -3.9381971520985046e+00 -5.8570384770331172e+00 -1.3979263677777258e+00
118 -3.7140704989232782e+00 -1.7258745424897031e+00 1.0861638795656627e+00
132 -5.3147542026280457e+00 7.3782699141810868e+00 -1.0394547119512646e+01
88 -4.9022403387917466e+00 8.8142859446336832e+00 8.2581888589181425e+00
22 4.2899165157107388e+00 -8.9539883170034429e+00 2.1645646324482990e+00
231 4.6073556879651567e-01 -6.0172614031828129e+00 2.6800134873237904e+00
149 1.0535857203858237e+01 -7.1042780150160290e-01 1.8848054725594745e+00
56 -7.6083934699560665e+00 -3.4910496398933000e+00 6.2937101056286453e+00
238 4.6198096475061909e+00 1.7228474724644290e+01 6.7968639787072043e+00
155 -5.2758947140660419e+00 -1.5584792346472890e+01 -1.3178541128364289e+01
237 -5.3066650070594665e+00 -6.7865682800502762e+00 -1.3982314963728648e+00
151 2.1663754331870102e+00 -1.2023928916762021e+01 -1.4639578595299658e+00
95 2.4354313738069484e+00 -1.0686224010148293e+00 5.2168204237560389e-01
208 -5.4522036759619938e+00 1.3230073895136584e+01 -3.5341071118908669e+00
171 8.3124183547299024e-01 -1.0086176525490131e+01 -1.1373514068928570e+01
219 -1.0023712858093834e+01 -3.5506419842324908e+00 5.1081791863011157e+00
176 -1.5187714706962225e+01 -1.1487994959005919e+01 5.6688882334831705e+00
162 5.1189704431839482e+00 3.5360131630989855e-01 8.6289045190037825e+00
194 -3.4109001056850619e+00 -1.6505600857558100e+00 5.6340575518870208e+00
3 -3.8475011793218230e+00 -8.2844124326188222e+00 -6.7965185816722551e+00