LAMMPS (8 Feb 2019)
Processor partition = 3
echo both

include         in.partitions
variable p_id world   0 1 2 3 4 5
include		in.temp
variable	temperature equal 2000.
variable	tempDamp equal 0.1 # approx 0.1 ps
include		in.pressure
variable	pressure equal 300000.
variable	pressureDamp equal 1.0
include 	in.seed
variable	seed world 74581 93734 128321 21934 495716 871038
units		metal
read_restart    Restart.lmp.${p_id}
read_restart    Restart.lmp.3
  restoring atom style atomic from restart
  orthogonal box = (-0.206119 -0.206119 -0.206119) to (15.2061 15.2061 15.2061)
  2 by 1 by 3 MPI processor grid
  pair style eam/alloy stores no restart info
  250 atoms
include 	in.setup
variable	out_freq equal 500
variable	out_freq2 equal 500

neigh_modify    delay 10 every 1
include		in.al
### Argon Potential Parameters ###
pair_style 	eam/alloy
pair_coeff 	* * Al99.eam.alloy Al

timestep	0.002 # According to Frenkel and Smit is 0.001

thermo          ${out_freq}
thermo          500
thermo_style 	custom step temp pe press lx


restart 	${out_freq} Restart.lmp.${p_id} Restart2.lmp.${p_id}
restart 	500 Restart.lmp.${p_id} Restart2.lmp.${p_id}
restart 	500 Restart.lmp.3 Restart2.lmp.${p_id}
restart 	500 Restart.lmp.3 Restart2.lmp.3



timer 		timeout 23:50:00 every 1000
New timer settings: style=normal  mode=nosync  timeout=23:50:00

# NPT

include		in.dump
dump            myDump all atom ${out_freq2} dump.al.${p_id}
dump            myDump all atom 500 dump.al.${p_id}
dump            myDump all atom 500 dump.al.3
dump            myDcdDump all dcd ${out_freq2} out.${p_id}.dcd
dump            myDcdDump all dcd 500 out.${p_id}.dcd
dump            myDcdDump all dcd 500 out.3.dcd
dump_modify	myDump append yes
dump_modify     myDcdDump append yes



fix             1 all plumed plumedfile plumed.dat outfile plumed.out
fix             2 all nph iso ${pressure} ${pressure} ${pressureDamp}
fix             2 all nph iso 300000 ${pressure} ${pressureDamp}
fix             2 all nph iso 300000 300000 ${pressureDamp}
fix             2 all nph iso 300000 300000 1
Resetting global fix info from restart file:
  fix style: nph, fix ID: 2
fix             3 all temp/csvr ${temperature} ${temperature} ${tempDamp} ${seed}
fix             3 all temp/csvr 2000 ${temperature} ${tempDamp} ${seed}
fix             3 all temp/csvr 2000 2000 ${tempDamp} ${seed}
fix             3 all temp/csvr 2000 2000 0.1 ${seed}
fix             3 all temp/csvr 2000 2000 0.1 21934
fix             4 all momentum 10000 linear 1 1 1 angular

run             30000000 upto # 60 ns
All restart file global fix info was re-assigned
Neighbor list info ...
  update every 1 steps, delay 10 steps, check yes
  max neighbors/atom: 2000, page size: 100000
  master list distance cutoff = 8.28721
  ghost atom cutoff = 8.28721
  binsize = 4.1436, bins = 4 4 4
  1 neighbor lists, perpetual/occasional/extra = 1 0 0
  (1) pair eam/alloy, perpetual
      attributes: half, newton on
      pair build: half/bin/atomonly/newton
      stencil: half/bin/3d/newton
      bin: standard
Per MPI rank memory allocation (min/avg/max) = 4.002 | 4.003 | 4.004 Mbytes
Step Temp PotEng Press Lx 
14999500    1863.7638   -702.12017    297994.57    15.412238 
15000000    2038.0902   -631.54569    307473.82    14.896931 
15000500     2037.846   -704.56277    303381.14    15.388038 
15001000    2125.1313   -703.93796    302899.21    15.393402 
15001500    2001.1849   -675.43509    301789.68    15.249935 
15002000    1966.7472   -649.38174    297658.99     15.00161 
15002500     1834.446   -611.73661    290845.74    14.732884 
15003000    2015.2851   -661.68132    304352.82    15.157104 
15003500    2060.4151   -731.95967     298655.4    15.880203 
15004000    1995.7652   -686.21124    298373.59    15.453067 
15004500    2146.9665   -630.35208    304385.46    15.037296 
15005000    2040.7035   -653.74479    298061.17    15.328587 
15005500    2018.0039    -628.6663    301294.06    15.053704 
15006000    2116.9068   -716.00693    287124.95    15.810001 
15006500    2138.0982   -691.68696     304933.3    15.322142 
15007000    1873.3171   -627.65882    305620.38    14.996267 
15007500    1994.0486   -720.32877    294528.49    15.706506 
15008000     2035.451   -698.77925    302021.39    15.566328 
15008500    2009.2873   -692.37318    301509.56     15.37772 
15009000    1868.1873   -680.27212    296710.54    15.377035 
15009500     2038.331   -639.40682    305383.51    14.999198 
15010000    1936.1622   -683.49929    298316.01    15.333554 
15010500     2223.156   -677.19469    298591.31    15.292827 
15011000     1882.501   -708.59096    297831.79    15.402178 
15011500    1827.8341   -649.74698    301025.99    15.064477 
15012000    2136.7584   -686.01006    300831.62    15.318871 
15012500    1866.7095   -678.30867    297026.94    15.256162 
15013000    2070.1564   -697.53981    286434.88    15.345693 
15013500    1921.3961    -705.2377    298111.28    15.444245 
15014000    2034.1133   -572.19274    312042.77    14.539331 
15014500    2097.9841   -672.72636    295612.32    15.296179 
15015000    2136.2486   -637.21705    299578.96    14.995311 
15015500    2160.9978   -710.49967    300644.38    15.513955 
15016000    1939.8291   -696.83545    298077.64    15.523124 
15016500    2037.4855   -647.30818    296485.73    15.221704 
15017000    1955.3567   -629.02226     298055.9    15.191947 
15017500    1972.5908   -640.50586    303383.35    15.138597 
15018000    2013.9304   -633.66667    301899.56    15.266475 
15018500     2075.744   -704.50534    300483.18    15.737498 
15019000    2073.4435   -740.62887    301679.31    15.903801 
15019500    1985.4076   -750.96755    301750.82    15.762095 
15020000    1968.3432   -714.73061    303553.45    15.406741 
15020500    1831.9188   -719.08021    292823.11    15.483043 
15021000     2056.932   -572.80192    315126.08    14.468186 
15021500    1994.1555   -587.92728    298479.15    14.551373 
15022000    1949.4062   -595.26589     285329.2    14.607033 
15022500    2020.2243   -610.84854    298215.23    14.723127 
15023000    2061.9377   -579.43679     306085.7    14.498967 
15023500    2025.6489   -579.72942    295996.86    14.443707 
15024000    1993.3732   -582.18668    302763.39     14.39316 
15024500    1960.8991   -587.45787    291483.24    14.570025 
15025000    2083.9698   -708.50396    300189.43    15.263525 
15025500    2058.0959   -721.29322    305448.81    15.359038 
15026000    2065.6749   -687.49724    300769.86    15.111406 
15026500    1931.5426   -653.25569    298182.86    14.923498 
15027000    2287.1326   -660.13713    301714.47    14.880974 
15027500    1938.2947   -581.81686    299942.93    14.388293 
15028000    2084.1124   -587.79714    300841.54    14.378005 
15028500    2028.5433   -663.90087    298902.11    14.697976 
15029000    1977.0177   -650.95235    300755.47    14.661704 
15029500    2096.2065   -660.91164    303786.84    14.603222 
15030000    2098.2899   -688.45526    299131.71    14.662293 
15030500    2075.6737   -638.28476    297259.49    14.446619 
15031000    1862.8397   -633.29968    300006.99    14.416082 
15031500    2035.9418   -642.12003    295314.92    14.453499 
15032000    2074.6492   -626.98064    296548.87    14.431844 
15032500    2121.2185   -626.99416    311578.09    14.345942 
15033000    1969.1119   -656.20451    303722.65    14.529232 
15033500    1999.1699   -690.71702    295655.61    14.676487 
15034000    1855.9096   -705.73469    299917.81    14.813412 
15034500    1893.6426   -690.87982    306441.87    14.577914 
15035000    1992.0874   -660.41378    292595.39    14.737312 
15035500    2044.2767   -642.03131    305491.86    14.729694 
15036000    1935.6204   -602.85577    308612.74    14.424654 
15036500    2113.4702   -605.54321     305940.5      14.4744 
15037000    2028.4402   -706.10384    301487.17    15.266405 
15037500    2005.4417   -737.94122       303896     15.39079 
15038000    1966.9813   -693.55287    304513.05    15.121912 
15038500    1830.0996   -674.10688    297278.33    14.995202 
15039000    2186.2954    -651.8553    304617.11    14.773162 
15039500    1899.9152   -633.51732    302157.39    14.702561 
15040000    1978.3824   -675.42834    295410.34    14.905311 
15040500    2063.9639   -583.55822    278041.41    14.294018 
15041000    1901.3069   -580.56351    284083.21    14.258098 
15041500    1995.0167   -595.16082    301998.34     14.45742 
15042000    2053.3724   -727.97984    272208.54    15.388368 
15042500    2138.1855   -717.17858    298034.51    15.387534 
15043000    2089.6132    -634.8039    302698.21     14.78354 
15043500    2268.0584   -718.82026    309404.87    15.269766 
15044000    2104.9169   -685.59994    301214.84    15.103131 
15044500    2008.9465   -695.36119    302283.57     15.13746 
15045000    2051.6715   -688.54983    299995.73    15.141754 
15045500    2042.6243   -647.07152    301371.95    14.741857 
15046000    2004.6635   -691.91459    303605.08    15.119682 
15046500     2037.942   -673.36603    298078.89    14.983932 
15047000     2018.882   -715.30157    260000.54    15.465014 
15047500    2135.9815   -662.85349    298139.18    15.117514 
15048000    2070.8584   -627.92586    298179.62     15.07406 
15048500    2028.2531   -621.69562    302217.61    15.041073 
15049000    2096.8176   -676.86457    295996.35    15.408163 
15049500     2000.596   -648.57879    302641.33    15.231718 
15050000    2131.9128   -654.55624     301214.4    15.335425 
15050500    1889.6094   -682.29787    300355.54    15.312789 
15051000    2147.5757   -752.14686    300344.62    15.693173 
15051500    1806.3564   -696.89508    293407.75    15.189487 
15052000    2095.4207    -767.1272    286653.19    15.727528 
15052500    1925.5985   -712.38174    303971.84    15.179361 
15053000    1986.5726   -719.60323    300929.56    15.237899 
15053500    1949.1741   -721.94705     296279.4    15.433115 
15054000    1971.9075   -717.63858    301267.95    15.395234 
15054500    2000.3045   -698.47445    297014.09     15.24412 
15055000    1849.7906   -699.00525    301709.27    15.272956 
15055500     2011.362   -741.12484    300773.54    15.608158 
15056000     1829.955    -744.6095    301316.13    15.583342 
15056500    2034.7042   -747.87538    302447.83    15.659858 
15057000    1959.8729   -732.20963    302717.13    15.514227 
15057500    2156.7893   -708.19356    302568.34    15.309959 
15058000    1877.8292   -740.79535    303817.48    15.598231 
15058500    1945.2239   -723.37616    300202.82     15.49956 
15059000    1987.1682   -717.55855    302145.99    15.506451 
15059500    2027.6398   -703.11758    301432.13     15.46028 
15060000    2131.4187    -746.4618     303318.6    15.804388 
15060500    1980.7874   -732.57922    292053.46    15.568427 
15061000    2009.5015    -743.5555    299590.94    15.632853 
15061500    2146.9596   -753.24195    299455.62    15.588712 
15062000    1915.1139   -756.94203    292854.52    15.787825 
15062500    2025.8264   -745.99146    299788.04    15.669929 
15063000     2142.963   -735.42326    299960.89    15.388238 
15063500    1975.8565   -756.00841    305474.16    15.608834 
15064000    2157.9895    -756.0508    310770.55    15.567588 
15064500    1950.6876   -674.63916    297898.22    15.172924 
15065000    1993.0444   -654.46185    300222.35    14.973822 
15065500    2005.5686   -641.73331    303109.55     14.98479 
15066000    1902.8431   -679.75339    298564.51    15.250651 
15066500     2191.287   -711.82479    304842.32    15.400725 
15067000    1982.9305   -672.25331    300744.37    15.237963 
15067500    1960.0022   -680.61776    299034.18    15.250638 
15068000    2008.0808   -663.72851    300813.47    15.088204 
15068500    1989.8375    -704.1156    301531.32    15.404612 
15069000    1930.6255   -657.82329    301251.53    15.076924 
15069500    2013.8957   -632.76577    303703.65    14.896261 
15070000    2131.6242   -693.67397    301459.67    15.249372 
15070500    1917.8672   -683.80652    302778.17    15.200479 
15071000    1913.7728   -746.34242    297367.02     15.54442 
15071500    2042.6809   -724.52269    305992.31    15.482247 
15072000    1860.1919   -713.83439    299541.04     15.44164 
15072500    2038.8456   -675.08601    301320.21    15.224685 
15073000    2049.2661   -708.19049    299459.32    15.386403 
15073500    1928.6296   -689.47175     300375.5     15.28836 
15074000    2035.5437   -699.01489    303028.08    15.297556 
15074500    2135.2281   -712.82027    306058.67    15.354518 
15075000    2039.4305   -661.72714    301890.79     15.18158 
15075500    2044.9378   -716.98504    279726.55    15.560476 
15076000    2031.0339   -694.89157    296702.31    15.414957 
15076500    2157.7006    -653.5974    305603.14    15.110458 
15077000    2082.3465   -645.08763    306918.16    15.047793 
15077500    2014.8959   -668.01136    297808.19    15.159804 
15078000    1943.3112   -686.73672    297054.95    15.442735 
15078500    1992.2696    -646.9719    298632.04    15.008025 
15079000    2059.0417   -733.52962    302570.61    15.799346 
15079500    1953.9547   -671.59116     298784.1    15.252016 
15080000    1926.8893   -662.45379       300525    15.356492 
15080500    1946.6433   -704.15992    281689.24    15.758859 
15081000    2035.4988    -718.8975    298455.22    15.729431 
15081500    1903.6694   -631.18204    304462.89    15.161582 
15082000    2049.5238   -640.95182    304187.21    15.273318 
15082500    2201.1388   -679.17468    300157.83    15.506891 
15083000    2005.1617    -656.5214    300355.26    15.207886 
15083500     1834.451   -673.88336    302282.33    15.478808 
15084000    2221.2837   -679.58973    302550.44    15.476479 
15084500    2023.8376   -658.51182    301507.38    15.224802 
15085000    2101.3354   -644.75283    299539.66    15.231215 
15085500    1960.3866   -639.43255    299000.96    15.054182 
15086000    2167.8201   -659.66303    305715.48    15.272943 
15086500    2127.9245   -618.66071    297024.13    14.991984 
15087000    1970.2246   -733.57779    294900.36    15.911092 
15087500    1973.1953   -701.51188    301568.11     15.57954 
15088000    2023.8656    -714.2524    298059.75    15.615907 
15088500    2066.7336   -613.50977    307127.49    14.966057 
15089000    1875.1984   -654.69514     298003.4    15.337869 
15089500    2071.1952   -631.98927    304100.12    15.157167 
15090000    2226.6259   -655.31483    295700.98    15.333179 
15090500    2040.8538   -673.37603    301094.36    15.276717 
15091000    1823.3003   -661.69069    295548.65    15.223604 
15091500    2129.4907   -617.21373    304691.17    14.874828 
15092000    2208.1883    -701.3243    300041.78    15.333095 
15092500    1817.1704   -736.11637    300701.03    15.815723 
15093000    2039.0682   -677.08297    305252.01    15.199036 
15093500    2083.1031   -748.29116    301846.12    15.644287 
15094000    2052.9203    -740.9667    293733.99    15.528406 
15094500    2057.2678   -733.05851    304915.03    15.422407 
15095000    2019.6104   -736.55598    299723.57    15.428714 
15095500    1896.4147   -679.58718    298804.21    14.874094 
15096000    2028.8262   -644.48819    309381.09    14.674997 
15096500    2006.7961   -741.62016    302292.64    15.370452 
15097000    2102.6832   -732.48764    295692.64    15.382518 
15097500    2173.1609   -721.85905    303540.33    15.328562 
15098000     2159.204   -719.91298    302694.48    15.436194 
15098500    2021.7474   -685.00398    305888.41    15.277588 
15099000     1876.084   -635.80177    303175.88    14.895984 
15099500    1770.0448   -704.47211    295530.01    15.512933 
15100000    1946.1279   -667.74848    297702.83    15.232058 
15100500    1855.2225   -680.07698    298375.92    15.320116 
15101000    2043.9775   -674.54282    295636.77    15.249842 
15101500    2099.0938   -672.11515    301452.07    15.197659 
15102000    2037.4795   -685.47008    299925.39    15.331028 
15102500    1962.3049   -646.87518    302852.51    14.899031 
15103000    1975.7986   -701.00164    299675.08    15.180607 
15103500    2328.8842   -681.28765     305091.4    15.046816 
15104000    2049.2215   -716.20498    275589.42    15.301474 
15104500    2053.2334   -664.18828    297931.79    14.869466 
15105000    2207.0319   -735.82348    299777.04    15.393262 
15105500    1910.8667   -725.70424    303082.55    15.346362 
15106000    1930.9526   -732.70944    301587.97    15.526282 
15106500    1989.5633   -725.83223     303017.2    15.448388 
15107000    2033.2034   -645.11901    297098.92    15.081147 
15107500    1771.9664   -645.54156    296268.06    15.138581 
15108000    1992.8673   -672.08953    299780.15    15.278907 
15108500    1959.1565   -681.79647    299500.56    15.361003 
15109000    2141.2766   -695.53533    298957.53     15.39727 
15109500    1932.7132   -637.31204    300551.62    14.819109 
15110000    1846.4685   -582.39205    295553.21     14.56571 
15110500    1931.4074   -647.05067    291370.22    14.925083 
15111000    2018.8127   -621.83361    299894.14    14.743324 
15111500    1906.5858   -583.10406     311857.6    14.512322 
15112000    2143.1075   -612.61247    298872.25    14.664553 
15112500    2106.1267   -591.69487    292705.69    14.611358 
15113000    1990.0491    -579.0818    308302.14    14.569803 
15113500    2080.5672   -658.72705    302030.27     15.03575 
15114000    2025.4914   -649.29603    304908.09        15.04 
15114500    2029.2224   -695.96564    299288.81    15.510752 
15115000    1843.5386   -628.71697     307932.4    14.995257 
15115500    2208.0837   -602.00025     306414.1    14.729811 
15116000    2013.3217   -631.12304    301234.86    15.051302 
15116500    1940.5493   -712.14259     300189.7    15.709748 
15117000    1907.7855    -652.7946    296952.04    15.194951 
15117500     2002.798   -641.92644    294174.91    15.075767 
15118000     1851.625   -664.22236    302917.22    15.400662 
15118500     2031.515   -680.31556    299115.11    15.506547 
15119000    2017.5608   -640.41023    299914.91    15.172054 
15119500    2118.1828     -643.309    303976.79    15.121711 
15120000    1955.2555   -692.24753    294481.05    15.333235 
15120500    1970.6206   -702.64847    296937.45    15.340997 
15121000    1757.4533   -685.66307    300909.02    15.214771 
15121500    1968.8927   -710.36938    295747.85    15.344329 
15122000    1970.3986   -700.00566    297524.79      15.1479 
15122500    1938.1481   -703.69901    274547.83    15.158608 
15123000    1812.6094   -747.23028    296915.83    15.500489 
15123500    1813.4574   -692.41244    297611.67    15.096152 
15124000    1969.4147   -729.53525    301313.38     15.33236 
15124500    2060.1148   -742.96576    304787.94    15.598871 
15125000    1993.4836   -740.29622     301912.2    15.653171 
15125500    1951.7405    -722.1096    300813.61     15.51591 
15126000    2301.5666   -760.50747     298714.9    15.710438 
15126500    2182.1122   -683.95861    312336.84    15.106196 
15127000    1739.2005   -691.97093     300055.5    15.327007 
15127500    2232.4832   -687.86779    308830.17    15.034009 
15128000    2075.4846   -694.68405    302107.53    15.124759 
15128500    1890.4611   -692.50733    296261.48    15.141189 
15129000    2081.3034   -726.08699    303706.14     15.43867 
15129500    1884.4206    -704.1982    296672.38    15.258848 
15130000    1927.7583   -592.94485     295782.9    14.630793 
15130500    2125.1236   -592.38934    299367.39    14.606905 
15131000    1925.2051   -588.56122    304559.94     14.81437 
15131500    2222.5579   -696.58145     301580.3    15.399918 
15132000    2008.6384   -709.76764    301883.47    15.373162 
15132500    2111.1581    -615.5472    307589.29    14.863365 
15133000    1997.2429   -600.61812    295745.08    14.687183 
15133500    1808.1059   -619.63296    303146.71    14.888682 
15134000    1914.2558   -694.77212    297519.23    15.472419 
15134500    2023.6973   -708.23212    301659.32    15.515501 
15135000    2047.4108    -637.2492    297710.21    15.061991 
15135500    2071.8518   -696.34971    298118.23    15.436029 
15136000    1899.1064   -625.23324    299913.07     15.05269 
15136500    2036.2356   -688.20284    298114.23    15.276133 
15137000    1962.9392   -691.89887     302944.3    15.262163 
15137500    1850.4649   -725.61975    301538.64    15.307192 
15138000    1867.8733   -730.32325    300238.68    15.544032 
15138500    1942.5485   -746.92095    301159.29    15.785962 
15139000    1849.6425   -718.51222    299073.77    15.424491 
15139500    2107.1048   -624.51058    306979.45    14.667808 
15140000    1891.7804   -585.96939    308476.08    14.500298 
15140500    1953.9879   -638.61487    295563.48    15.012683 
15141000    1906.2441   -661.95292     294053.9    15.252282 
15141500    2083.1442   -711.15303    306062.61    15.599958 
15142000    1788.3947   -712.07979    296689.55    15.642364 
15142500    1914.2157   -710.69261    301500.75    15.622773 
15143000    1920.3863   -751.12673    288782.61    15.906706 
15143500    2218.3731    -699.1493     305369.8    15.285814 
15144000    1882.1704   -625.00727    306377.93    14.729338 
15144500    1982.5525   -609.60266     297244.2    14.699591 
15145000     1890.983   -598.83466     314528.2    14.566906 
15145500    1938.6293   -619.79685    299592.35    14.684877 
15146000    2057.4707   -640.00553    301390.72    14.796203 
15146500    1990.0883   -694.18703    305715.49    15.184429 
15147000    1981.4642   -731.21287    300625.87    15.529322 
15147500    2077.7146   -731.54123    304350.52    15.395052 
15148000    2113.0171   -703.44498    301396.63    15.218477 
15148500     2093.397   -690.54495    301826.14    15.158263 
15149000    1916.6409   -721.32253    299596.98    15.369943 
15149500    2098.3698   -727.62621    295513.88     15.55855 
15150000    1882.5229   -728.93309    292874.17    15.699949 
15150500    2009.9791   -633.88856    301169.64    15.078575 
15151000    2038.0378   -711.82332     284790.7     15.56479 
15151500    1896.9276   -665.56448    295579.88    15.143452 
15152000    1990.4615   -718.92561    298738.22    15.536042 
15152500    1864.5045   -658.26585    297799.62    15.155702 
15153000     2010.645   -700.45905    293523.42    15.360474 
15153500    1960.4561     -706.608       296309    15.469527 
15154000    2063.7759   -733.06146    299417.31    15.530731 
15154500    1846.4852   -734.88105    303841.05    15.468181 
15155000    1978.8055   -712.02891    300571.83    15.252249 
15155500    1866.6608   -700.72542    295361.16     15.18136 
15156000    2041.5833   -610.00779    314072.81    14.627494 
15156500    1989.4281   -635.77177    292872.35    14.778728 
15157000    2018.2351   -642.52789    303396.69    14.793593 
15157500    1963.8554   -657.56282    296858.51    14.856575 
15158000    2025.2242   -659.56227     293359.6    14.810062 
15158500     2049.344   -727.53306    307564.74    15.395032 
15159000    2030.1651   -748.38729    300106.56    15.846987 
15159500    2010.6054   -739.20511    300475.32    15.881112 
15160000    1924.6097   -688.80132    299977.53    15.547077 
15160500    2091.5769   -608.23495    304236.54    14.892193 
15161000    2048.9733   -676.15803    300623.94    15.525853 
15161500    2065.6934   -698.78756    299299.09    15.564622 
15162000    1935.9238   -680.37129    299233.12    15.539778 
15162500    2046.5543   -639.77226    301354.52    15.087771 
15163000    1889.7106   -673.51804    290165.51    15.509628 
15163500    1980.5254    -662.6335    300698.85    15.299477 
15164000      1928.41   -660.87497    299645.87    15.329857 
15164500    1856.2083    -648.1195    296736.99    15.223952 
15165000    1962.3516   -638.88395    297999.46     15.15211 
15165500    1966.7577   -642.84866     299721.4    15.161481 
15166000    1858.9012   -639.92967     299557.1    15.083431 
15166500    1926.0922   -665.28726    295421.41    15.405687 
15167000    1859.0681   -691.47046    297071.83    15.710859 
15167500    2135.3326   -657.76062    300488.26    15.364844 
15168000    1961.8491   -671.99224     296208.9    15.330762 
15168500    2133.2967   -688.34696    301247.06    15.490082 
15169000    1954.4614   -670.51946    297003.16     15.23332 
15169500    1999.4742   -698.66163    301099.54     15.47269 
15170000    1923.2042   -729.32391    299353.51     15.67585 
15170500    1770.9237   -718.41215    294953.48     15.45742 
15171000    1930.2009    -630.9305    296718.18    14.766781 
15171500     1969.789   -669.65397    303380.35      14.9365 
15172000    2045.1889   -685.72054    305600.24    15.008677 
15172500    2083.9231   -670.38012    299417.65    14.911723 
15173000    1826.4439   -742.34453    299506.54    15.457743 
15173500    2062.3062   -698.92374    298027.96    15.198797 
15174000    2018.8289   -623.25515    309631.61    14.676433 
15174500    1982.0898    -718.8511    297461.21    15.271442 
15175000    1963.7195    -742.3259     300565.6    15.439674 
15175500    1885.3941   -666.56651    299338.49    14.952341 
15176000    2061.0149   -639.55066    306979.53    14.752107 
15176500    2058.7641   -637.69635    292317.93    14.793797 
15177000    2019.7141    -644.3239    300674.49      14.7086 
15177500    1869.2994   -615.44078    310195.64    14.610368 
15178000    2057.5966   -659.04231    296965.55    14.760837 
15178500    1965.4511    -641.0209    303912.74    14.710424 
15179000    1911.7894   -637.61936    300339.37    14.727829 
15179500    1997.2432   -694.15782    301651.42    15.166923 
15180000    1969.9623    -752.9148     303744.7    15.630617 
15180500    1856.7223   -718.83445    302712.26    15.374979 
15181000    1984.3058   -743.65153    304436.29    15.521634 
15181500    1917.3012   -701.80644    298999.25    15.514235 
15182000    1776.5437   -671.71649    296366.06    15.178607 
15182500    2170.0157   -664.70684    300142.91    15.045085 
15183000    1980.2055   -692.72134    303750.32    15.279956 
15183500    2071.8369   -737.22041    302643.25     15.51672 
15184000    1991.2907   -713.97903    308871.48    15.277726 
15184500    1855.8159   -678.47442    295352.98    15.182289 
15185000    2065.5781   -668.62641    300017.19    14.963487 
15185500    2070.8157   -657.38688    298934.49    14.923877 
15186000    1986.0492   -613.44995    307163.27    14.394277 
15186500    2146.7337   -649.63064    300509.32     14.56882 
15187000    2218.5115   -573.40023    310010.65    14.242259 
15187500     1790.547   -571.93006    309447.73    14.310023 
15188000    2127.8424   -575.36207    294804.74    14.278223 
15188500    1946.2361   -676.37797    292837.89    14.795479 
15189000    2033.4744    -649.7327    301647.21    14.758948 
15189500    2137.9092   -706.38807    303776.03    15.291893 
15190000    2227.5143   -682.30338    301108.04    15.104427 
15190500    2002.7257   -672.81329    296441.81    15.146932 
15191000    2085.5034   -645.00346    305300.94    15.000096 
15191500    1998.6371   -716.04981    294789.58     15.57672 
15192000    1937.8308   -709.33129    303616.82    15.463644 
15192500    2034.2711   -733.39615    301760.46    15.566028 
15193000    1927.4114   -716.94995    301246.87    15.450616 
15193500    1981.8053   -735.54795     296715.5    15.644524 
15194000    1988.2088   -661.16574    299251.72    15.187737 
15194500    2135.9975   -701.73411    297621.69    15.412799 
15195000    1939.3955    -704.4784    296140.81    15.345752 
15195500    1898.0944   -655.76556    298700.85    15.112973 
15196000    2071.7637    -670.3767    303416.29    15.154448 
15196500    1992.2128   -693.39214    303208.41    15.332495 
15197000    2019.5429   -628.20415    297043.19    14.828708 
15197500    2068.2212   -714.35125    302718.23     15.32253 
15198000    1926.2996   -698.93211    300718.14     15.28349 
15198500    1912.5027   -657.61727    297498.99    15.287159 
15199000    1958.3058   -652.00083    301252.63    15.118071 
15199500    2038.0674   -728.98064     302580.8    15.758819 
15200000    2108.7673    -670.8217    300832.52    15.430514 
15200500    1934.4489   -647.37239    293422.09    15.285286 
15201000    2061.9211   -631.76443    297363.11    15.162505 
15201500    2024.0717   -670.57318    301776.19    15.233938 
15202000    1948.6249   -682.31809    303483.27    15.370824 
15202500    2102.6781   -734.61343    305074.97     15.61986 
15203000    1844.2924   -627.33167    298922.06    15.150965 
15203500    2029.7792   -649.92484    292268.02    15.231845 
15204000    1950.0981   -659.77182    300786.38    15.294616 
15204500    2086.3326   -719.70321    298555.43    15.815381 
15205000    1937.6792   -664.07362    298919.05    15.303018 
15205500    2071.4357   -636.33528    295729.12    15.108047 
15206000    2095.2968   -612.15472    295630.66    14.903985 
15206500     1842.316   -689.42975     299617.8    15.534264 
15207000    1913.3142   -636.03231    300589.36    15.231001 
15207500    1960.1874   -672.04871    302843.64    15.331832 
15208000    1842.3458   -695.38798    303380.37    15.569415 
15208500     1951.109   -686.78971    299715.08    15.629695 
15209000    2108.0336   -675.62203    299338.85    15.370063 
15209500     2156.496   -596.27601    296597.18    14.766655 
15210000    2000.3397   -670.74846    300722.83    15.261759 
15210500    2083.9126   -694.90498    298820.53    15.394337 
15211000    1942.1429   -692.60224    298656.43    15.304247 
15211500    1816.8942   -703.40593    291824.53    15.463676 
15212000    2082.3268   -697.21898    299736.23    15.333273 
15212500    1945.1276   -737.69699    309133.17    15.602965 
15213000    1895.5289    -751.3931    294829.34    15.657748 
15213500    1905.8355   -735.31528    294886.68    15.408175 
15214000    2001.3754   -756.58436    289761.25    15.710022 
15214500    2116.1408    -721.3754    282128.14    15.255503 
15215000    2004.1109   -719.28151    274263.13    15.379151 
15215500    2003.8738   -657.93284    295976.12    14.939564 
15216000    2260.2017   -676.10924    298476.82    15.090678 
15216500     2087.016   -681.84147    301936.99    15.137775 
15217000     1773.026   -688.49196    300691.95    15.294319 
15217500    1967.2808   -745.48726    300488.01    15.547653 
15218000    1973.2897   -741.14442    299579.95    15.581591 
15218500    2008.3944    -749.9624    298735.61    15.607221 
15219000    1973.1856   -736.33449       305902    15.376868 
15219500    1979.0659   -731.13189    307824.57    15.357443 
15220000    1843.9169   -715.50656    302910.86    15.112638 
15220500    2097.9447   -750.86854    299133.61    15.464102 
15221000     1994.249   -755.99249    287415.39     15.67526 
15221500    2050.3462   -696.69801    297157.96    15.040781 
15222000    1961.4574   -746.91014    305110.07    15.625487 
15222500    1903.0618   -697.66343    299914.75    15.205656 
15223000    2055.8713   -745.43023     299364.9     15.56456 
15223500    1892.4257   -752.41674    293893.98    15.495342 
15224000    2074.0465   -694.21921     303078.3    14.932624 
15224500    1884.9257   -732.96553    301692.09    15.235922 
15225000    1927.4797   -721.52775    303812.23    15.093095 
15225500    1891.5091   -650.09857    305821.48    14.611274 
15226000    2086.8682   -730.98172    298708.21    15.267047 
15226500    1998.4222    -720.8685    305730.38    15.212095 
15227000    1966.0075    -737.1973    301229.34    15.346885 
15227500    1949.2936   -759.64529    300903.31    15.547123 
15228000    1808.6409   -745.82729    297262.96    15.296954 
15228500    2009.3067   -713.74749    295471.44     15.04842 
15229000    1927.4391   -738.42221     291886.3    15.400371 
15229500    2077.7484   -755.62909    298262.47     15.50057 
15230000    1932.0048    -753.7661    297469.63    15.485143 
15230500    1928.6589   -730.07517    302390.34    15.233137 
15231000    1992.4211   -691.95081    299891.71      14.9824 
15231500    2081.2277   -636.29314    306648.41    14.689583 
15232000    2064.2968   -588.10241     298197.1    14.338342 
15232500    2239.4211   -730.19875    296603.06    15.335056 
15233000     2047.415    -746.4125    305945.99    15.487967 
15233500    2081.3546   -752.96381    307609.74    15.671383 
15234000    2038.4729   -651.37433    301672.07    14.866672 
15234500    2064.6332   -587.62666    300731.83    14.544514 
15235000    1978.0922   -578.66422    312103.81      14.5029 
15235500    1967.9589   -585.03974    297193.88    14.610514 
15236000    1908.2884   -601.80727    289896.75    14.688118 
15236500    1792.9448   -653.11493     297830.8    14.898545 
15237000    2024.6409   -664.04141    297138.95    14.906227 
15237500    1916.9205   -622.55465    305769.62    14.736804 
15238000    1970.9334   -594.12918    294914.03    14.581192 
15238500    1842.9733   -640.94174    297790.68    14.807934 
15239000    2075.5279   -629.65131    299746.14    14.817077 
15239500    2020.2739   -697.08343     298237.1    15.399688 
15240000    2246.7311   -660.68787    301996.86    15.224852 
15240500    2047.0754   -649.12581    300721.24    15.299557 
15241000    2029.8359   -706.24257    305376.72    15.545466 
15241500    2071.7273   -664.29153    294233.34    15.284462 
15242000    1960.0869   -674.00801    300215.03    15.227554 
15242500    1988.3845   -711.59376    295181.55    15.394404 
15243000    1902.8527   -673.18407    296196.71    15.301856 
15243500    2083.9943   -651.99574    299156.32    14.955975 
15244000    2040.5474   -719.47265     302635.1     15.47871 
15244500    2040.4369   -735.54546    301072.09     15.82293 
15245000    1907.7286    -700.2526    300810.32    15.597579 
15245500    2048.7035   -690.65958     301157.1    15.470761 
15246000    2064.8875   -686.23517    302549.74    15.441006 
15246500    1874.5978   -644.91788    297247.68     15.21991 
15247000     2111.687   -646.40131    302777.01    15.234209 
15247500    2144.3149   -729.67784    298734.12    15.960832 
15248000     2056.817   -638.31464     300844.2    15.227856 
15248500    2021.3256   -648.86447    300013.61    15.208098 
15249000    2106.9855   -637.44507    300368.55    15.100325 
15249500    2215.1162    -673.6229    303412.01    15.399182 
15250000    1887.4427   -685.46952    298952.54    15.484807 
15250500    2338.2548   -690.22645    302093.31    15.283116 
15251000    1930.2024   -691.61043    300836.95    15.312804 
15251500    1913.9118   -612.19159    302707.36    14.961131 
15252000    1867.1732    -683.2756       300161     15.38627 
15252500      1998.21   -722.41037    304284.95    15.795786 
15253000    2235.7887   -698.14779    306610.54    15.552214 
15253500    2069.9641   -696.89333    302645.43    15.623441 
15254000    2125.6367   -703.57541    302536.54    15.622339 
15254500    2120.1853   -705.30305    300519.33    15.576986 
15255000      2055.65   -696.94752    303636.41    15.591353 
15255500    1996.3529   -678.47493    301114.89    15.527376 
15256000     2023.524    -658.0123    299644.18    15.236975 
15256500    2180.5999   -637.23874    301202.41    15.057943 
15257000    2099.2096   -730.50764    300392.17    15.684867 
15257500    2176.6439    -666.3942    301621.53    15.300244 
15258000    2082.5191    -640.2817    302289.57    15.174464 
15258500    2039.0663   -672.70211    298069.03    15.400638 
15259000    1957.1942   -745.78727    283100.17    15.953856 
15259500    2153.5442   -619.04985    313331.14    14.980164 
15260000    2056.7337    -656.0629    298421.64    15.148656 
15260500    1924.5838   -664.16159    294970.68     15.19952 
15261000    1980.2173   -720.82624    299040.96    15.485404 
15261500    2171.0061   -611.29003    307815.44    14.814674 
15262000    1948.0382   -710.34919    300952.39    15.481848 
15262500    2227.6497   -694.02266    302299.29    15.308533 
15263000    1996.5407   -668.04553    301522.14    15.173342 
15263500    1991.2448   -581.45998    310584.67    14.490523 
15264000    1974.6926   -590.08486    300899.91    14.542046 
15264500    2037.5611   -636.71216    301033.11    14.879369 
15265000    1929.5685   -674.50702    300521.53    15.171362 
15265500    2047.9584   -669.59376    294288.48    15.258597 
15266000    2112.3218    -693.8747    298314.28    15.361192 
15266500    1971.0351   -680.53265    301213.62    15.310595 
15267000    2018.9403   -697.84971    298521.65    15.294473 
15267500    1881.3841   -750.44769    297313.94    15.705516 
15268000    2004.4298   -670.24726    299843.04    14.845364 
15268500    2116.7255   -618.49112    302015.91    14.517456 
15269000    1978.1655   -702.10773    297444.79    15.208138 
15269500    2047.1733   -703.72544    301392.59     15.09554 
15270000    2095.0706   -762.23814    294862.56    15.472479 
15270500    1978.7012   -754.42823    297197.43    15.362074 
15271000    2125.4409   -755.51828       314384    15.463598 
15271500    2071.8306   -755.24532     306508.7    15.421677 
15272000    2004.1545   -760.32936    309328.48    15.557953 
15272500    1903.0579   -749.45296    300112.33    15.391051 
15273000     1965.848   -763.24013    306138.82    15.487645 
15273500    2124.6865   -734.93004    309262.77    15.191923 
15274000    2026.6067   -722.54129    296110.78    15.064376 
15274500    1951.5459   -673.90522    304608.89    14.648855 
15275000    2039.9302   -702.32758    297858.24    14.818341 
15275500    1908.9387   -635.78934    300177.45    14.465964 
15276000    2041.2747   -649.44418    301968.08    14.545444 
15276500    2022.6461   -653.37476    306265.08    14.573784 
15277000    1972.5312   -617.73883    306069.86    14.367536 
15277500    2103.2057   -737.38296    298628.56    15.147366 
15278000    2107.6988   -657.50252    293016.36    14.672881 
15278500    1999.0435   -672.89881    292446.91    14.733741 
15279000    1900.6808   -707.13727    301909.98    14.911009 
15279500    1982.3136   -671.68179    305889.73    14.581511 
15280000    2060.2191   -718.16736    304584.23    14.977575 
15280500    2102.7592   -647.85453    307949.31    14.497355 
15281000    1932.9376   -671.95719    299651.09    14.729099 
15281500    1990.7925   -664.52778    297297.93    14.742129 
15282000    1913.9496   -668.97556    293626.37    14.791915 
15282500    2062.9725   -681.74197    296077.79    14.839878 
15283000     2140.684   -685.52206    305843.23     14.86215 
15283500    2036.5122   -720.54619    292073.11    15.302506 
15284000    1913.6545   -730.22311    284470.16    15.385344 
15284500    1911.3958   -726.96472    295840.57    15.271769 
15285000    2094.1624   -752.97797    318346.89    15.579842 
15285500    1875.1853   -721.41544    305493.28     15.10568 
15286000    1860.1777   -743.08804    290379.87    15.304813 
15286500    1850.0357   -752.13961    302438.75    15.417961 
15287000    1833.7247   -752.95782    301833.94    15.450699 
15287500    1996.2114   -740.05552    291098.71    15.407527 
15288000    1905.3989   -672.92585    297933.89     14.98387 
15288500    1969.7004   -649.47688    300767.97    14.661067 
15289000    2100.2737   -673.86465    295220.94    14.705373 
15289500    2020.1977   -666.38979    296919.39    14.728925 
15290000    1887.8819   -653.22142    299768.58    14.770738 
15290500    1830.1532   -666.41711    294162.47    14.995494 
15291000    1895.3137   -675.51174    289344.15    15.194661 
15291500     1995.483   -640.82929    295985.94    14.639504 
15292000    1834.4478     -627.843    294533.71    14.688209 
15292500    1956.9192    -685.8039    300046.11    15.008941 
15293000    1849.5747   -712.10079    298878.62     15.41196 
15293500    2090.7056   -710.12466    304212.35    15.381415 
15294000    1985.3635   -690.32294    300174.02     15.17985 
15294500    2056.8571   -581.49003    304766.13    14.416159 
15295000    1926.6611    -587.7973    301923.44    14.497957 
15295500    2127.0444   -585.32451    300076.91    14.515755 
15296000    1935.8926   -592.69164    289445.27    14.591798 
15296500    2218.5001   -576.76404    305970.94    14.541657 
15297000    2039.8133   -576.85001    306363.23    14.526314 
15297500    1951.0026   -649.08349    300142.27    14.959995 
15298000    2016.2364   -739.06051    299764.05     15.63636 
15298500    2061.3784   -689.62539    302262.01    15.173308 
15299000     1957.043   -755.94392    294441.15    15.674009 
15299500    1954.0558    -706.7674     302419.4    15.219985 
15300000    1777.8865   -736.93762    302383.63    15.539229 
15300500    1998.3622     -740.377     289138.8    15.550395 
15301000    2075.2962   -714.87049    299514.15    15.160181 
15301500    1942.3274   -709.78068    303574.77    15.008582 
15302000    1913.4221    -740.2818    305337.68    15.611017 
15302500    1999.9459   -749.22265     301465.1    15.572599 
15303000    1960.0711   -711.45364    305187.68    15.157362 
15303500     2007.974   -726.78722    298656.27    15.236995 
15304000    2160.0128   -680.75137    299827.02    14.934375 
15304500    1965.7238    -664.9816    293349.57    14.741709 
15305000    1982.5344   -710.43556    298745.69    15.150867 
15305500    1983.9012   -735.57852    301253.72    15.352243 
15306000    1765.5915   -724.28475    299150.38    15.126379 
15306500    2064.6725   -713.98756    303046.03    15.036083 
15307000    2019.1575    -731.1822    299404.09    15.275295 
15307500    2050.5809   -749.73925     297274.4    15.472834 
15308000    1886.1262   -699.58872    302617.59    15.028764 
15308500    1922.6161   -745.31141    300381.73    15.564612 
15309000    1918.8562   -744.57221    296744.09    15.579517 
15309500    2015.6128   -756.34798     297093.9    15.775092 
15310000    1880.5688    -734.2124    301482.97    15.542476 
15310500    1948.4125   -701.52449    297555.75    15.373973 
15311000    1902.7641   -703.63412    301105.01    15.417296 
15311500     1984.151   -728.40395    300776.86    15.886879 
15312000    2186.0307    -739.9402    305455.54    15.901242 
15312500    1944.5633   -699.01284    297885.91    15.703205 
15313000    2079.5947   -596.50283    296866.18     14.74896 
15313500    1886.9559   -610.27589    302506.43    14.860517 
15314000    1993.7753   -573.62882    303028.42    14.633721 
15314500    1748.3063   -593.88364    291538.82    14.835885 
15315000    1841.4392   -592.32206     297917.4     14.77422 
15315500    1955.8768   -626.29566    298139.52    14.877321 
15316000      2094.29   -596.75339    291659.19    14.615446 
15316500    2081.9007   -640.77106    294845.35    14.871034 
15317000     1915.709   -616.58227    290837.26    14.721583 
15317500    2063.7098   -600.64151    290902.84    14.642462 
15318000    2124.1684   -648.79071    295927.64     14.83897 
15318500    1922.1786   -636.85089    293933.15    14.807415 
15319000    2032.3315   -587.26375    299523.35    14.644105 
15319500    1945.4647   -573.67045    320188.45    14.548722 
15320000      1792.71   -711.54041    291364.57    15.333379 
15320500    1840.0511   -718.80209    297713.16    15.270598 
15321000    1957.7175    -750.8798    297363.02    15.500783 
15321500    1964.8386   -725.72539    298569.33    15.388744 
15322000    2147.3103   -657.29135    293577.28    14.928616 
15322500    1813.2434   -643.15028    287667.19    14.878531 
15323000    1935.3682   -634.32919    296471.13    15.079308 
15323500    1973.2511   -705.69696    301029.89    15.439112 
15324000    2037.4299   -705.23236    300227.92    15.648373 
15324500    1987.5552   -695.18473    297137.48    15.412992 
15325000    1977.3838   -572.04938    307809.85    14.578041 
15325500    1974.8733   -685.07846    297394.73    15.245874 
15326000    1886.7703   -645.17096    299849.16    15.126191 
15326500    1921.0359   -654.96076     299797.3    15.070038 
15327000    2042.7872   -646.13804    303902.43    15.043509 
15327500    2108.5394   -686.84693    300414.96    15.347381 
15328000    2134.1216   -645.36747    297837.62     15.02335 
15328500    2007.3437   -734.11517     298836.4    15.618793 
15329000    1999.1888   -687.08487    302540.47     15.27815 
15329500    1920.2107   -723.27601    299314.12     15.77138 
15330000    1950.0654   -646.04975    299166.43    15.310519 
15330500    2106.8814   -641.37017    302206.23    15.203447 
15331000    1834.3289   -652.42513    299494.53    15.226306 
15331500    2141.6222   -607.35494    303762.34     14.93511 
15332000    2051.9846   -703.97133    301207.45    15.659131 
15332500    2031.7985   -686.37876    305921.01    15.450998 
15333000    1971.9005    -685.7594    299689.36    15.265784 
15333500    2068.8892   -673.23345     298216.4    15.189649 
15334000    2269.9141    -573.9618    308989.16    14.493863 
15334500     1940.915   -633.05685    297352.11    14.819813 
15335000    1889.1415   -633.54117    295722.49    14.752836 
15335500    2036.6157   -629.57512    298191.89     14.78648 
15336000    1938.9336   -633.82191     294450.9    14.746826 
15336500    2014.3405   -616.68393     295056.2    14.742169 
15337000    2051.7866   -599.25059    307868.48    14.677883 
15337500    2015.6437   -660.17881    304747.34    14.991111 
15338000    1928.0102   -731.53796    299198.25    15.436636 
15338500    1885.7368   -754.19339    297369.45    15.670075 
15339000    1974.3805   -621.33639     309532.2    14.654924 
15339500     1983.062   -647.78311    306326.06    14.703769 
15340000    2106.3532   -642.74871    305397.34    14.759542 
15340500    1942.1398   -646.52633    299737.53    14.771119 
15341000    2095.7501    -655.5017    278517.03    14.798713 
15341500    1917.4725   -663.13944     297075.5    14.776036 
15342000    2165.6631   -658.91318    302727.32    14.725371 
15342500    2051.8403   -652.35179    298025.44    14.713597 
15343000     1968.602   -644.09657    307063.39    14.744426 
15343500    1977.7549   -719.13368    293192.56    15.232486 
15344000    1769.8399   -692.04722       307196    14.966528 
15344500    2060.1904   -648.56265    306809.19    14.725508 
15345000    2222.3826   -652.73274    295789.24    14.733786 
15345500    2243.9601   -713.92736    276425.29    15.115071 
15346000    1821.8451   -697.50543    299535.22    15.038589 
15346500    2060.5591   -706.64318    284556.88    15.024015 
15347000    2040.6596   -710.66866    300363.51    15.170344 
15347500    2338.2196   -693.82907    294502.07    15.144226 
15348000    2021.0746   -750.10068    299869.52     15.64781 
15348500    1887.3862   -644.96623     302281.6    14.787993 
15349000    1910.4551   -648.05381    300555.18    14.739519 
15349500    2076.5583    -654.8778    303468.02    14.718195 
15350000    1823.8348   -661.19197    306222.89     14.73208 
15350500    2121.6329   -619.28367    328395.12    14.517948 
15351000    2028.8051     -705.497    298242.23    15.085972 
15351500    2036.8319   -658.67794    296454.37    14.756287 
15352000    1976.3943   -665.96526    288674.15    14.766116 
15352500    2024.7151   -656.46412    304204.02    14.714194 
15353000    1894.8278   -667.77396    294549.99    14.813336 
15353500       2002.4   -694.98333    288509.29    15.057964 
15354000    1964.0865   -633.02143    313429.83    14.633173 
15354500    2077.2282   -721.95475    302395.59    15.219613 
15355000    1937.8305   -693.78727    301446.44    15.210599 
15355500    1876.6385   -711.21248    295479.35    15.474843 
15356000    2036.6956    -649.8418    297917.08    15.169983 
15356500    2069.1522   -687.27648    299549.94    15.437314 
15357000    1902.4123   -593.64802    304355.72    14.845377 
15357500    2013.4358   -656.96681    298019.31     15.27464 
15358000    2004.9667   -717.04642    290642.72    15.809086 
15358500    1906.1733   -688.03577    303407.21    15.498786 
15359000    1970.4345   -693.49183    299997.63    15.474159 
15359500    2047.9377   -712.01016    296671.88    15.716874 
15360000    1961.5372   -673.37581    298562.33    15.387305 
15360500    2283.9931   -641.46155    305689.11    15.137065 
15361000    2120.1604   -655.92272    303163.21    15.248239 
15361500    1812.8198   -640.71831    298370.71    15.101141 
15362000    2262.5123   -590.97619    297273.19    14.690737 
15362500    2024.1479   -719.44675       295735    15.723815 
15363000    2005.7196    -708.5836    295173.57    15.695541 
15363500    2091.4324   -688.91701    301622.54    15.356346 
15364000     1890.207    -672.2032     298167.4    15.373614 
15364500     1982.133   -708.40781    298227.05    15.692822 
15365000    2043.6995   -683.28858    302394.25    15.520845 
15365500    2134.2728   -632.08924    297530.96    15.020516 
15366000     1905.502   -656.29112    296765.61    15.238834 
15366500    2160.4673   -633.96077    305256.23    15.028352 
15367000     1984.464   -703.22322    294478.68    15.690746 
15367500    1990.4362   -704.63369    294442.79    15.709683 
15368000    1958.4938   -702.26864    299032.83    15.662912 
15368500     2042.919   -710.14614    300454.15    15.687507 
15369000    1887.5975   -685.51648    298710.51    15.581311 
15369500    2017.6203   -678.74565    302490.66    15.513435 
15370000    1933.8373   -700.91742    297096.09    15.717573 
15370500    1884.1401   -699.05943     301722.3    15.635249 
15371000    1968.1809   -694.93638    294525.51    15.711815 
15371500     1970.866    -659.1162    298693.38    15.280267 
15372000     2011.818   -684.10104    299698.02    15.449725 
15372500    2093.3549   -746.45425    292301.26    15.889044 
15373000    2157.3058   -738.01753    297575.93    15.666768 
15373500     1965.242   -658.86574    301783.51    15.193183 
15374000    2056.6996   -678.43322    307672.01    15.196692 
15374500      2194.36   -672.92775    295838.65    15.379596 
15375000    2125.0995     -582.528    310524.01    14.561537 
15375500    1950.9685   -586.14607    290698.01    14.607073 
15376000    1915.5893   -682.55333    294562.69    15.377161 
15376500    1839.9656   -673.47898    297420.02    15.308885 
15377000    1937.3393   -646.31143    303690.08    15.101661 
15377500    2114.7367   -665.32079    299427.72    15.094522 
15378000    2115.6489    -670.0448       302431    15.124544 
15378500    2083.6087   -684.12931    301709.52    14.937312 
15379000    2222.7731   -614.03715    306243.03    14.417413 
15379500    2069.9438   -724.60821    295454.02    15.170545 
15380000    2008.0469   -708.81133    311997.96    15.287926 
15380500    1977.0704   -751.36942    312113.36    15.531769 
15381000    1983.9363   -725.11071    300750.08    15.263819 
15381500     2174.689   -750.46055    297576.48    15.474971 
15382000    1994.3434   -702.80562    301314.28    15.032372 
15382500    2025.1862   -712.48552    303395.49    15.044483 
15383000    1872.0686   -702.53246    303950.79    14.982205 
15383500    2055.6792   -647.08352    311738.21    14.611179 
15384000    2145.4471   -736.17031    300029.21    15.214735 
15384500    2061.3763   -707.42201    304077.67    15.006028 
15385000     2056.962   -725.39112    301308.69    15.140371 
15385500    1931.5432   -658.77616    300722.72    14.712828 
15386000    2056.1499   -648.03705    301627.52     14.68346 
15386500    1871.9365   -653.87139    299058.72    14.764681 
15387000    2010.2171   -694.19294    301823.22    15.082847 
15387500    2009.6563   -755.17641    290027.41    15.661783 
15388000    2168.9725   -725.93759    306918.98    15.319896 
15388500    1943.5421   -707.93251    299940.07    15.430266 
15389000    1930.9001   -680.93216    297300.63    15.306061 
15389500    1969.4742   -709.06073    295538.87    15.456262 
15390000    1964.8264   -680.13731    301341.92    15.279763 
15390500    1939.7586   -693.10718    302825.96    15.259043 
15391000    2004.2691   -727.36697    296414.69    15.620029 
15391500    2016.4018   -647.54017    304997.28    15.006246 
15392000    2193.0327   -710.71736    286572.88    15.375832 
15392500    2133.7714   -726.64511    289827.22    15.491349 
15393000    1959.2721   -646.90201    304383.81    15.023517 
15393500    1991.6308   -697.37596    301154.11    15.381453 
15394000    1940.4661   -641.19951    304514.47    14.960938 
15394500    1881.8053   -688.04704    301558.19    15.311477 
15395000    2062.9677   -659.92732       304255    15.024274 
15395500    2015.6973   -679.13548    298681.56     15.31222 
15396000     2050.305   -658.62204    298800.06    15.082778 
15396500    1883.9691   -677.64383    297516.38    15.214889 
15397000    1858.2024   -634.89108     293836.4    14.739431 
15397500    1959.8136   -634.99967    306509.42    14.661768 
15398000    2001.1796   -699.36637     300078.3    14.936469 
15398500    2116.8842    -723.2363     304441.2    15.284622 
15399000     1960.635   -632.13349    303116.33    14.747451 
15399500    2019.3072   -584.82111    288905.53    14.494276 
15400000    1865.0482   -575.05457    311255.37    14.400525 
15400500    1888.4165   -605.53739    293667.58    14.592857 
15401000    2014.8241   -730.30365    294712.62    15.546519 
15401500    2038.5611   -726.31289    299355.22    15.440217 
15402000     1832.771   -716.62905    297533.76    15.329423 
15402500    1932.4109   -745.79788    309533.42    15.434873 
15403000    2033.2838   -750.00381    311225.41    15.409828 
15403500    2109.3565   -757.51568    299137.07     15.41494 
15404000    1922.4214   -714.78845    307736.19     15.28258 
15404500    1968.9104   -752.24085    302949.08    15.547896 
15405000    1785.3924   -744.03722    300929.67    15.474332 
15405500     1863.601   -716.44954    303419.19    15.226245 
15406000    1927.0913   -752.27549    296704.02    15.588901 
15406500    1940.9428   -750.47057    299305.49    15.589374 
15407000    2103.2559   -717.66286    307203.96    15.413611 
15407500    2063.5877   -698.63493    304113.56    15.588062 
15408000    1921.6413   -694.44057    299623.32    15.561466 
15408500    1954.4303   -689.02433    296743.38    15.625508 
15409000    2062.7549   -648.52082    303282.14    15.252838 
15409500    2188.5546   -687.81727    303192.37    15.526234 
15410000     1965.879   -702.42425     301739.4    15.643059 
15410500    1910.5913   -702.01216    300011.71    15.646997 
15411000    2012.4037   -701.60585     301415.9    15.590285 
15411500    1880.5393   -685.37751    305106.37    15.239495 
15412000    2015.6432   -721.34742    301876.95    15.472432 
15412500    1911.1535    -680.7203     297840.6    15.210978 
15413000    1856.8774   -664.25973    295962.39    15.017835 
15413500    1926.9484   -620.50008    301288.48    14.785056 
15414000    2091.3639   -723.58992    292953.05    15.570211 
15414500    1942.6729   -623.97066    308146.57    14.910316 
15415000    2096.6225   -724.50546    304057.23    15.494523 
15415500    2071.3997   -716.32067    304520.51    15.479219 
15416000    1802.7083   -707.32222    290182.17    15.727325 
15416500     1675.181   -643.74615    294431.68    15.053976 
15417000    2011.4327   -705.72443    299329.15    15.421265 
15417500    1997.4844   -664.09156    296527.29    15.139373 
15418000    2102.2576   -676.82905    300653.26    15.295703 
15418500    1896.6606   -688.55247    300715.06    15.300328 
15419000    1879.8714   -687.18927    301731.55    15.343862 
15419500    2021.5229    -636.3922    307715.43     15.06481 
15420000    2055.6137    -672.2966    299981.28    15.314443 
15420500    1959.3653   -645.60919    300623.25    15.137977 
15421000    1845.4652    -717.2484    295336.92    15.629037 
15421500    2062.7128   -728.90752     299140.4    15.744395 
15422000    2046.7173   -643.29576     300666.8    15.099261 
15422500    2016.3691   -669.59123    301646.67    15.280069 
15423000     1909.803   -670.40321    293996.06    15.290874 
15423500    2037.4236   -657.51487    297968.89    15.134086 
15424000    2092.1389   -687.50494    304430.28    15.298633 
15424500    1907.5215   -635.65637    306752.89    14.911465 
15425000    2028.2622   -651.93124     297937.3    15.115498 
15425500    1995.5698   -700.47702    300055.91    15.378635 
15426000    2020.5593    -698.9199    300392.48    15.445624 
15426500    1863.3432   -639.50062    300335.23    14.993043 
15427000    2094.9107   -742.62039    305673.67    15.610288 
15427500     2006.452   -748.44874    299275.86    15.690098 
15428000    2034.8538   -748.11209    313008.25    15.573523 
15428500    1956.7398   -739.39643    298837.23    15.434228 
15429000    1956.4274   -713.44221    299263.28    15.041403 
15429500     1828.298   -712.82148    299916.99    15.066348 
15430000    1995.4917   -736.62579    299726.92    15.341773 
15430500    2260.4918    -751.7224    310358.39    15.471674 
15431000    2023.7404   -749.13973    291592.38    15.514981 
15431500     2036.912   -712.24516     303425.5    15.199927 
15432000    1983.9728   -615.95282    300724.23    14.596157 
15432500    1928.5491   -672.24535    302575.02    14.999853 
15433000    2105.0588   -730.34309    304455.36    15.460594 
15433500    1863.7558    -723.6356     295397.2    15.502115 
15434000    2191.5681   -704.93311    284533.41    15.453889 
15434500     1965.597   -651.73173     304820.4    14.979791 
15435000    1937.2697   -651.47085    296126.61    14.843639 
15435500    1968.1758   -702.79844    301637.37     15.27132 
15436000    1972.2032   -723.72808    296466.38    15.341655 
15436500    1946.9085   -723.42177    300709.92    15.465196 
15437000    1886.9898    -706.4467    302152.96    15.394593 
15437500    1946.8634   -625.99089    296689.28    14.832415 
15438000    2135.2702   -674.20197    295063.06    15.314744 
15438500    2013.1838   -661.46562    304390.24    15.146764 
15439000     2231.525   -658.20793    307018.85     15.00053 
15439500    1947.2497   -674.14491    301839.08    15.121098 
15440000     2031.084   -707.85344    304445.03    15.530228 
15440500    2112.8624   -709.99975    294984.82    15.706314 
15441000    1951.1052   -630.73311    301557.53    15.088239 
15441500    1821.9532   -666.42691    300300.08    15.283399 
15442000    1991.8356   -650.60349    301888.44    15.242075 
15442500    1960.0363   -639.83421    295899.88      15.1692 
15443000    1924.4348   -632.00409     297721.1    15.040373 
15443500    2036.2218    -719.8735    299920.27    15.484439 
15444000    1913.9509    -729.7119     298528.7    15.406019 
15444500    2012.8164   -723.97292     301247.4    15.160408 
15445000    1955.8171   -710.58331    304943.84    15.080492 
15445500    1941.8996   -734.66333    299449.62      15.3111 
15446000    2106.2981   -740.78567     296147.5    15.275043 
15446500    2096.2826   -758.21876    299243.43    15.616937 
15447000    2102.1075   -744.84947     300890.8    15.441019 
15447500    2011.4153   -746.28013     311033.7    15.560628 
15448000    1889.1426   -741.27668    301157.53    15.322292 
15448500     2038.847   -745.32531    294477.17      15.3764 
15449000    1819.4836   -726.33478    299908.65    15.163936 
15449500    2064.3061   -709.10257    298262.13    14.992163 
15450000    1767.6776   -724.55037    292640.38    15.147412 
15450500    2027.2632   -701.50613    290198.17    14.877156 
15451000    2046.4262   -680.86506    297821.59    14.684273 
15451500    2119.8725   -682.27906    294515.98      14.7641 
15452000    1939.9845   -670.07397    276631.13    14.681849 
15452500    2071.4477   -654.33171    304591.14    14.662659 
15453000     1937.581   -669.47761    300671.03    14.803558 
15453500    2049.6987   -655.50155    301749.99    14.651837 
15454000    2155.6758   -602.86601    297985.31     14.37448 
15454500    2042.9667   -632.92772    304292.32    14.602732 
15455000    2195.8645   -710.87788    293102.85    15.305528 
15455500    2073.1069    -677.7493    299000.99    15.028529 
15456000    2050.6034   -672.82446    299760.51    15.051875 
15456500     2033.983   -642.67158    308797.93     14.90794 
15457000    2047.3772     -704.869    297854.51    15.290331 
15457500     1797.756   -707.01032    303356.66    15.306591 
15458000    1932.4032   -627.09536    304098.48    14.691636 
15458500    2151.7466   -689.04913    286463.21    15.149755 
15459000    2159.9624   -668.02584    296866.34    14.914302 
15459500    2124.2063   -601.81773    299149.33    14.494994 
15460000    1820.4737   -585.76608    298524.84    14.403446 
15460500    1910.1001   -582.84909    293425.48    14.452396 
15461000    1950.0289   -586.70383    285663.08    14.485696 
15461500    1937.8358   -583.14753    293681.57     14.47223 
15462000    2064.9148   -602.61185    294641.66    14.561653 
15462500     2139.771   -665.57207     301135.4    14.888653 
15463000    1996.3241   -690.06501    299882.53    14.924725 
15463500     2104.764   -707.72301    297616.67    15.026988 
15464000    2054.8223    -650.7015    300165.13    14.805816 
15464500    1954.7258   -581.87967    295443.22    14.518998 
15465000    1908.2277   -588.65398    294174.58    14.413684 
15465500     1991.932    -584.5321    287078.95    14.441924 
15466000    2162.1035    -652.5678    300692.11    14.819777 
15466500    2037.5461   -672.50955    303411.17    15.005307 
15467000    1870.2457   -648.02747    296625.74     14.87299 
15467500    2049.8579   -662.63044     299565.3    15.012025 
15468000    2136.0803   -697.24098       298572    15.211132 
15468500    2021.3045   -667.17588    303807.52    14.985512 
15469000    2104.8213   -678.77548    300499.98    15.147542 
15469500    1963.3306   -633.72011    301685.25    14.794547 
15470000    1838.3479   -640.68447    297756.45    14.806942 
15470500    2047.5854   -722.44303    273167.03    15.400042 
15471000    2088.0265   -704.26847    307585.55    15.068023 
15471500    1986.2988   -680.59902    299647.16     14.92132 
15472000    2023.9273   -656.94577    303356.32    14.706947 
15472500    2029.0674   -670.63538     295693.5     14.82244 
15473000    2027.8932   -662.67563    296292.15    14.890325 
15473500    1959.6133   -646.79806    300718.89    14.738714 
15474000    1959.3273   -643.46486    301617.88    14.721349 
15474500    1918.2312   -605.20691    292542.04    14.424049 
15475000    2155.5633   -585.99858    295566.77    14.435672 
15475500    2043.3337    -582.4113    299352.05    14.397571 
15476000    1981.9575   -584.71544    294058.28    14.493014 
15476500    1943.9391   -582.73728    297386.45    14.510941 
15477000    2051.1847   -587.49226    298431.68    14.517233 
15477500    1829.6374   -593.33662     301646.9     14.53901 
15478000    2163.3567   -619.81234    306991.25    14.608755 
15478500    1948.1082    -651.8298    301065.31     14.99351 
15479000    2068.6863   -732.63558    301014.48    15.590101 
15479500    1844.7097   -690.65426     299790.9     15.50838 
15480000    2123.9522   -684.49638    302404.73    15.274369 
15480500    2193.9536   -627.94831    306801.85      14.9436 
15481000     1952.138   -715.30974    299960.12    15.583573 
15481500    2049.3424   -716.63985    300379.51    15.521601 
15482000    2106.3959   -738.20373    288929.99    15.931576 
15482500    2127.0131   -651.97273    302367.72    15.236924 
15483000    2109.1664   -663.83444    297299.81    15.272376 
15483500    2014.5662   -617.28107    303223.28    14.881667 
15484000    1945.1486   -590.57066    293800.66    14.658438 
15484500     2023.117   -686.12639    301189.31    15.097202 
15485000    1963.0688   -699.52844     294931.2    15.134334 
15485500    2063.3415   -702.68684    305153.18     15.05855 
15486000    1939.9569    -707.1868    301969.64    15.178168 
15486500      1875.37   -674.92174    298247.64    14.931292 
15487000    2224.6006   -746.55253     301608.6    15.468753 
15487500    1975.9822   -752.23061    297833.29    15.623626 
15488000    1901.6263   -684.51079     304424.2    14.956635 
15488500    1965.0545   -650.83864    303224.24    14.786123 
15489000     1884.752   -629.23128    302345.94    14.706858 
15489500    2025.0213   -646.70277    294894.67    14.827557 
15490000    1953.1676   -644.76428    287599.41    14.764403 
15490500    2055.9438    -637.8251    295275.58    14.802185 
15491000    2015.4493   -630.96667    299424.46    14.724459 
15491500    1824.8702   -615.53106    302575.79    14.772189 
15492000    2048.1271    -624.1134    309548.91    14.741793 
15492500    1871.3392   -642.69971    302974.25    14.741086 
15493000    2038.8468   -644.86012    301871.86    14.786046 
15493500    1940.3015    -621.0688    315297.15    14.613287 
15494000    1973.9678   -628.83783     306510.4    14.630304 
15494500    2156.8183   -656.44096    302427.84    14.752316 
15495000    1835.0975   -655.76574    295858.43    14.740052 
15495500    2040.6794   -665.22648    308057.01    14.737295 
15496000    1859.5663   -729.03242    302983.89    15.329168 
15496500    2001.9526   -752.38805       301093    15.459448 
15497000    1974.5845   -748.01631    298286.56    15.481997 
15497500    2221.6481    -708.2621    306692.83    15.076914 
15498000    1944.2376   -710.11606     287527.3    15.189247 
15498500    1804.5354   -695.03282    306442.37    15.090249 
15499000    1895.4415   -657.38744    272520.99    14.785127 
15499500    2035.6759   -743.14239     300054.2     15.37795 
15500000    1909.5703   -753.86117    299962.35    15.400123 
15500500    2081.1239   -707.16891    308223.83    15.022717 
15501000    1933.4747   -750.09022    297963.09    15.434903 
15501500    2125.3862   -652.31415    304497.07    14.733497 
15502000    2045.7309   -648.48252    299124.05    14.705252 
15502500    2090.8511   -669.28651    291640.69    14.741258 
15503000    2023.9461   -663.95285    310877.68    14.707566 
15503500    1966.1526    -674.9016    295296.84    14.785871 
15504000     1780.399   -710.26917    301276.19    15.038801 
15504500    1936.0052   -701.74418    305819.56    14.986332 
15505000    1987.9258   -654.57825    291135.21    14.682477 
15505500    1941.8873   -700.70362    296018.06    14.871753 
15506000    1869.7558   -675.16271    286314.96    14.771462 
15506500    1973.0369   -674.57917    314039.72    14.706237 
15507000    2000.2124   -720.36473    307046.88     15.08253 
15507500    2077.6457   -700.53794     309398.3    14.973411 
15508000     2051.468   -746.43345    301652.91    15.398322 
15508500    2069.9747   -718.61286    298763.34    15.148265 
15509000    2024.2922   -730.08405    299400.64     15.15763 
15509500    1827.3461   -718.58485    297212.65    15.087932 
15510000    1946.4816   -745.81552     303783.7    15.333152 
15510500    1889.9906   -682.34266    304418.58    14.789283 
15511000    2105.8957   -731.09704    307712.74     15.14019 
15511500    1959.7708    -754.3547    297946.86    15.423041 
15512000    2088.8402   -689.95356     312413.9    14.871108 
15512500    1955.7622     -674.931     299548.4     14.81377 
15513000    2151.5521   -669.62471    301020.93    14.850798 
15513500    2157.4719   -643.28553    323093.87    14.587326 
15514000    2128.0072   -727.81504     304739.8    15.295411 
15514500    2376.7908   -750.67796     306572.9    15.437378 
15515000    2000.6763   -738.82964    305730.03    15.396592 
15515500     1949.475   -741.47727    301122.64    15.390794 
15516000    2020.2716   -660.21998    298254.74    14.824232 
15516500    2002.0826   -732.60042    297610.82    15.247465 
15517000    1948.9444   -748.48973    294735.89    15.359383 
15517500    1969.9866   -754.33896    295536.14    15.388593 
15518000    2030.3348   -708.94253    301628.23     15.02096 
15518500    2040.4815   -709.17681    301629.65    15.030545 
15519000    1929.3229   -743.79572    287690.81    15.278651 
15519500    2030.6098   -757.04582    295763.07    15.479566 
15520000    1947.9555   -726.36319    299868.12    15.176118 
15520500    2150.4492   -725.98523    297317.63    15.231171 
15521000    2009.4611   -711.12977    300124.23    15.082454 
15521500    1920.6559   -714.15425    303149.79    15.000401 
15522000    2170.5306    -670.5959    300094.41    14.719585 
15522500    2041.3099   -735.53197    291981.66      15.2384 
15523000    2039.7997   -685.92492     304396.7    14.832722 
15523500     1857.893   -683.89568    301967.23    14.829445 
15524000    2069.2323   -692.90249    304199.61     14.92511 
15524500    2199.4065    -659.4677    313670.57    14.671797 
15525000    2014.6186   -651.68556    297150.48    14.723268 
15525500    2284.9325   -667.22364     292848.6    14.798823 
15526000    1945.1567   -644.49766    307865.01    14.672985 
15526500     1895.507   -667.94403    287617.98     14.81684 
15527000    1971.6303   -722.92625    289330.54    15.174187 
15527500    1965.2036   -718.78898    299078.44    15.176819 
15528000    2059.3154   -713.77811    299884.45    15.124058 
15528500    2011.0287   -698.87622    308941.74    15.003864 
15529000    2031.9066   -692.47112    305796.93    14.993485 
15529500    2070.5914   -709.61532    295874.35    15.080172 
15530000    2075.3799   -667.12769    300529.06    14.807726 
15530500    2027.0269   -642.75237    283523.74    14.644105 
15531000     1982.132   -686.02822    307881.02    14.888993 
15531500    2026.9658   -697.14162    305691.92     14.99837 
15532000     2107.574   -705.74591    308298.31    15.006212 
15532500    1999.9457   -720.68414    297591.74    15.135202 
15533000    2046.7861   -717.23423    302926.08    15.084491 
15533500    1968.4549   -720.58785    281175.78     15.04254 
15534000    2030.1124   -723.61125    304917.18    15.052846 
15534500    1798.4854   -749.96071     291419.8    15.350344 
15535000    2025.6934   -723.23322     288117.1     15.00714 
15535500    1898.3243    -724.1754    293706.26    15.082003 
15536000    1801.6211   -671.86922       296332    14.783154 
15536500    1963.9067   -720.06608    287202.38    15.030451 
15537000    1928.8069   -687.24391    306876.48    14.809953 
15537500    1844.8587   -725.14426    290976.05    15.083333 
15538000    2222.7177    -720.5714    291223.09    15.072534 
15538500    2025.6132   -702.91055    305106.28    15.058141 
15539000    1999.2392   -721.84715    279865.01    15.067414 
15539500    2013.6873   -682.86263    291757.46    14.784341 
15540000    2015.3586   -705.43041    303092.11    14.994536 
15540500     2131.098   -744.96991    299928.38    15.374705 
15541000    2169.9504   -717.47048    302921.88    15.078646 
15541500    1942.7516    -760.1216    293698.22    15.407538 
15542000    1870.6004   -719.40422    298527.74    15.116207 
15542500    1771.9087   -673.22722    294409.67    14.765193 
15543000     1991.536   -666.45765     298566.1    14.812028 
15543500     1982.241   -756.11561    299363.76     15.45778 
15544000    1968.2449   -657.83539    312007.11     14.64215 
15544500    2200.9487   -745.01355    304487.24    15.294299 
15545000    1957.8459   -752.99901    289110.34    15.395232 
15545500    1996.7727   -754.49958    291684.78    15.378117 
15546000    2050.0486   -665.40774    301559.56    14.675762 
15546500    2063.8659   -725.49329    287636.71    15.041966 
15547000    2057.3585   -721.56036    286739.64    15.155975 
15547500    2078.7166   -711.18729    305129.71    15.017903 
15548000    2066.7683   -713.25249    303531.14    14.995218 
15548500    1882.2529   -701.04865     311446.8    14.860678 
15549000    1970.4629   -686.66287    297655.39    14.801285 
15549500    1992.5176   -682.79261    297607.36    14.821576 
15550000    1903.4199   -700.54938    303227.23    14.949405 
15550500    2133.6239   -655.24254    320759.78    14.636131 
15551000    1943.4008    -677.9294    292787.03    14.731574 
15551500    2105.7799   -667.56275     311130.2    14.684743 
15552000    1963.7311   -674.63128    265980.42    14.769297 
15552500    2039.5812   -651.02499    301618.65    14.731152 
15553000    1866.3827   -754.74225    295045.24    15.472015 
15553500    2060.4966   -752.31323    299587.14    15.447985 
15554000    1863.4888   -684.68278     296361.5    14.869327 
15554500     2013.352   -681.60468    301251.82    14.848369 
15555000    1918.8725   -746.50284    293215.42    15.461292 
15555500    2009.3629   -740.71014    295889.95    15.345826 
15556000    2008.3455   -751.49859    285566.09    15.389634 
15556500    1948.1702   -746.97816    303991.38    15.333662 
15557000    2037.1112   -728.19244    295313.84    15.193509 
15557500    1871.7583   -684.53917     297498.7    14.831988 
15558000    2122.2212   -699.71129    306504.63    14.891947 
15558500    2020.3099   -675.59606    283697.83    14.843721 
15559000     1883.016   -680.73585    287823.33    14.786238 
15559500    1962.6733   -724.88843    301592.14     15.08657 
15560000    2059.6123   -718.17513     287373.2    15.007237 
15560500    1916.0874   -677.05138    316528.15    14.712116 
15561000    1886.7227   -733.59921    304383.38    15.189557 
15561500    2019.3773   -754.07103    297838.26    15.385012 
15562000    2116.7834   -737.26099    307247.09    15.248942 
15562500    2052.9704   -709.55817    305991.27    15.039844 
15563000    1843.2869   -723.04238    287195.77     15.08341 
15563500    1936.8663   -722.78399    303165.65     15.11767 
15564000    1761.2054    -711.6175    293782.24    15.129819 
15564500    1970.4099    -708.8765    301325.57    15.093708 
15565000    1858.0536   -715.68549    290456.17    15.085578 
15565500    1904.3498   -690.03954     306857.6    14.883697 
15566000    1998.9581   -737.54355    307636.94    15.264333 
15566500    2125.9402    -716.7993    306492.41    14.998365 
15567000    1966.5049   -710.40739    294024.47    15.043385 
15567500    2059.4844   -695.40573    309109.97    14.795661 
15568000    1898.1096   -703.92404    290325.83    14.943897 
15568500    2137.4904   -749.96608     301144.9    15.440259 
15569000    1837.0012   -637.93378    300589.35    14.632908 
15569500    1959.5731   -652.51245    296291.85    14.766163 
15570000    1925.2743   -663.66693    298631.44     14.77983 
15570500     2014.762   -755.44606    294317.64    15.440753 
15571000    1955.9769   -746.64264     303420.9    15.327059 
15571500    1966.1937   -719.61922    300119.24    15.067727 
15572000    1878.8368   -713.84238     307536.2    14.992136 
15572500    2237.7608   -714.75635    306068.54    15.016286 
15573000     2102.709   -705.41434    304093.39    14.920117 
15573500     1867.138   -647.07791    307122.21    14.620535 
15574000    2207.6482   -667.87404    305815.24    14.711613 
15574500     1893.324   -646.98588    304750.63    14.660374 
15575000    2058.8411    -642.4192     308867.5    14.647328 
15575500    2226.9694   -702.45828    302744.73    15.052696 
15576000    1936.8858   -739.28811    305082.57    15.391263 
15576500    2165.1633   -750.13474    294168.54    15.474816 
15577000    1961.4352   -671.91368    301652.62    14.982514 
15577500    1998.6853   -670.86267    290312.53    14.789433 
15578000     2002.247   -648.74434     304816.9    14.676158 
15578500    1929.0013   -654.37898    298528.48    14.732697 
15579000    2004.6115   -650.83213    292747.89    14.627111 
15579500    2121.9006   -646.69487    310889.41     14.66173 
15580000    2114.8076   -723.34646    308027.62    15.120684 
15580500    1848.3609   -733.16783    298542.42    15.307714 
15581000    1862.0858   -622.35001    303729.36    14.587444 
15581500    2024.8012   -724.13819    290034.42    15.192516 
15582000     2031.816   -694.51299    301779.77    15.004338 
15582500    1993.8046   -638.90802    310286.22    14.659857 
15583000    2017.9265   -657.71909    282903.29      14.7718 
15583500    1939.9302   -657.58596    298809.03    14.713324 
15584000    2115.3294   -699.35216    290358.47    14.896693 
15584500    1849.7601   -650.10595    301971.43    14.653511 
15585000    1889.0545   -723.49421     286648.5    15.162128 
15585500    1964.8911   -683.61204    299367.24    14.852945 
15586000    2081.3626   -698.68582    311831.77    14.920801 
15586500    2131.5585   -701.10413    290164.05    14.947643 
15587000    1994.9293   -706.28406    303201.69    15.002428 
15587500    1975.1416    -722.0593    299885.64    15.171455 
15588000    2173.2022   -738.02439    305316.25    15.248389 
15588500    2180.4061   -726.10684    301819.95    15.168208 
15589000    2007.4516   -696.45524    304588.84    14.947637 
15589500    2125.6927   -695.22917    308617.68    14.941631 
15590000    1923.6542   -743.44425     298418.2    15.231564 
15590500    1740.4161    -687.3046     293934.2    14.814606 
15591000    1776.5784   -713.82939    313146.42    14.949517 
15591500     1999.973   -739.99513    288614.76     15.21155 
15592000    2022.4343   -711.12391    301190.54    14.951232 
15592500    1991.9117   -695.66662    303815.77    14.891755 
15593000    2085.0485   -732.56149    294516.91    15.179763 
15593500    1938.7395   -715.88823    298611.77    14.974785 
15594000    1866.0243   -720.22738       295221    15.034472 
15594500    1998.6222   -727.48208    307699.01    15.105204 
15595000    2055.6365   -747.68593    306901.52     15.32531 
15595500    2031.9374     -710.381    294346.57    15.019861 
15596000    1854.0574   -752.34802    295571.94    15.420751 
15596500    2131.1859   -649.46069    307259.37    14.691538 
15597000    2018.5248   -715.73326    300806.59    15.074218 
15597500    2063.1347   -691.18709    302772.16    14.971931 
15598000    2176.1253   -712.27361    302653.37    15.060782 
15598500    2018.7662   -717.92054    299854.97    15.064797 
15599000    1854.3441   -700.08029    308837.12    14.956916 
15599500     1914.042   -645.95269    311125.75    14.651023 
15600000    2032.1675   -719.99764     289298.8    15.122264 
15600500    2228.4245   -706.17511    304871.06    15.013357 
15601000    2105.3956   -723.32975    294819.02    15.113978 
15601500    1953.6504   -707.08847    299061.66     15.07722 
15602000    1932.0666   -710.70519       301846    15.034394 
15602500    1976.3394   -725.36989    284467.47    15.214966 
15603000    1951.4798   -718.34172    296534.35    15.108387 
15603500    2043.1819   -738.25356    276426.54    15.240033 
15604000    1923.2292   -712.03774    299786.95    15.078887 
15604500    1959.0357   -706.32002    310092.47    14.913761 
15605000    2014.0389   -723.75111    282602.14    15.017789 
15605500    1924.6909   -714.95263    302838.21    14.950255 
15606000    1901.4722   -743.58552    301361.66     15.31192 
15606500    1975.6503   -746.81479    304218.43     15.38876 
15607000    1967.4525   -755.44497    298543.24    15.389734 
15607500    2084.5003   -758.58523    294412.33      15.4272 
15608000    2073.9903   -716.80259    286367.94    15.029413 
15608500    1964.1563   -697.99696     306843.8    14.923489 
15609000    2087.1083   -697.74496    289617.46    14.911936 
15609500    2049.7943    -711.6327    309925.72    14.979779 
15610000    1924.1544    -663.4709    301478.42    14.733375 
15610500    2055.2443   -658.92347    325147.97     14.63328 
15611000    1982.1434   -663.95716    306130.46    14.699435 
15611500    2024.4905   -653.88852    301924.05    14.663771 
15612000    1960.5072   -714.68203     291898.8    15.078106 
15612500    1798.3666   -753.17406    297716.57    15.429801 
15613000    2120.1487   -699.82935    314855.67    14.940179 
15613500    2072.5828    -716.0633    297955.24    15.127147 
15614000    1837.4441   -721.36063    292140.98    15.148743 
15614500    2078.8061   -711.80341    299006.37    15.029468 
15615000    2153.4587   -726.24785    291895.28    15.103315 
15615500    2007.9356   -717.77698     313079.2    14.971292 
15616000    2010.0342   -722.68892    298843.06    15.138598 
15616500    1948.7642   -738.89504    301416.71    15.257079 
15617000    1896.4323   -748.16627    303364.45    15.387701 
15617500    1888.5322   -638.57988    317605.02    14.572332 
15618000    1939.0651   -729.77417    300708.68     15.14446 
15618500    2108.2446   -666.23232    308612.39    14.678111 
[...]
29848000    1943.8996   -658.83656    297050.02    15.358398 
29848500    1970.1346   -634.07716    301562.11    15.183954 
29849000    2188.1411   -619.70473    307975.98    15.085931 
29849500    1939.7308    -659.5854    302229.68    15.356467 
29850000    2211.6093   -705.86952    303480.17    15.412776 
29850500    2078.2753   -654.06281    303265.56    15.276201 
29851000    1849.1347   -683.32874    298578.54    15.334437 
29851500    1908.5293   -708.16033    295893.69    15.571131 
29852000     1885.201    -617.0495    303024.12    14.933294 
29852500     2148.882   -570.05834    317574.57    14.610197 
29853000     2066.143   -712.02552    301481.17     15.60539 
29853500    2153.4159   -698.34988    299936.54     15.67477 
29854000    2078.0381   -711.71515     299909.3    15.554219 
29854500    2064.1747   -701.92421    303000.72    15.536891 
29855000    2081.5645   -674.20069     303254.4    15.155431 
29855500    2038.2477    -742.6729    301877.71    15.804962 
29856000    1751.6559   -740.04077    302658.63    15.826505 
29856500    1938.1485   -725.60684    300748.82    15.559955 
29857000     2112.827   -735.89634    297646.58    15.732388 
29857500    1922.8067   -614.81973    306410.89    14.799164 
29858000    2208.7013   -575.26552    314559.98    14.653111 
29858500    1947.1071   -664.47659    302848.56    15.268141 
29859000    1994.6998   -701.37838    300590.94    15.356859 
29859500    1885.4347   -686.74614    297263.76    15.408059 
29860000    1956.9582   -640.55055     298983.2    15.106903 
29860500    1992.8488   -653.79029    300711.24    15.034491 
29861000    2030.3239   -697.12324    298941.09    15.654343 
29861500    1983.1585   -635.33714    307552.44    15.065764 
29862000    2107.0273   -659.08656    295456.67    15.282004 
29862500    2103.0551   -667.30325    304050.96     15.23247 
29863000    1979.9649   -634.60273    305645.59    15.054679 
29863500     1970.528   -662.41934    296306.45    15.187779 
29864000    2123.1462   -655.25829    300843.97    15.141588 
29864500    1918.8978   -645.65949    302233.87    15.080719 
29865000    1923.9016   -695.12943    295280.04    15.425305 
29865500    1986.6471   -654.70097    304287.33    15.043676 
29866000    2102.4527   -735.31008    304517.68    15.501908 
29866500    2163.5164   -691.87207       296320    15.336878 
29867000    2035.8822   -707.58521    299327.57     15.42225 
29867500    2043.1377   -659.11611     300320.8    15.162948 
29868000     1951.046   -655.26732    293427.23    15.155722 
29868500    2064.6318   -633.96028    299571.18    14.755294 
29869000    1906.6573   -656.73112    300182.56    14.946058 
29869500    2075.2296   -674.31611     299960.8    15.217466 
29870000    2088.8255   -641.65531    306118.21     14.92924 
29870500    1949.2325   -722.74501    299432.92    15.525759 
29871000    1926.0147   -714.14859       297534    15.371495 
29871500    2113.5946   -754.35017    303326.12     15.64002 
29872000    2097.2356   -741.83323    302043.79    15.504177 
29872500    1951.9701    -757.9145    303867.71    15.562709 
29873000    1955.2243   -754.12959    295032.27    15.409072 
29873500    2108.6118   -666.96787    301043.64    14.698433 
29874000    2069.5994   -698.86418    300360.54    14.911992 
29874500    2030.2311    -687.5522    281524.87    14.870914 
29875000    2095.0826   -741.73629    292157.21    15.281701 
29875500    2187.1491   -754.18535    306044.69    15.512909 
29876000    2066.0016   -752.82142    312671.07    15.474636 
29876500     1953.203   -726.93685    290273.68    15.314276 
29877000    2124.1378   -725.18665    291623.44    15.289996 
29877500    1950.6849   -709.25406    293733.65    15.328267 
29878000    2001.4866   -641.60638    301689.29    14.839282 
29878500    2022.8414    -685.5856    298372.21    15.148384 
29879000    2032.1535   -721.80065     304088.5    15.232207 
29879500    1971.2756    -658.4418    301115.02    14.870853 
29880000    1788.9263   -672.06146    295796.52    15.044952 
29880500     2026.796   -719.70714    296865.26    15.242295 
29881000    1942.1327   -709.22588    292764.16    15.246697 
29881500    1908.8012   -661.68236    300803.64    14.875758 
29882000    1941.7679   -670.40824    292493.47    15.170011 
29882500    2005.4854   -678.21138    295664.39    15.184316 
29883000    2068.0007    -703.0773    284313.23    15.468098 
29883500    1968.5658   -689.15736    296201.94      15.3637 
29884000    1971.6714   -726.78768    296326.04    15.658201 
29884500    1958.4364   -751.67941    293892.76    15.841646 
29885000    2048.3325   -747.01218     300299.9    15.765077 
29885500    1778.7676   -649.00809    301770.86    15.121563 
29886000    2081.5916   -634.12189    301700.34     15.05001 
29886500    2099.7038   -709.36517    304513.98    15.557279 
29887000    1972.3753   -720.87413    296554.47    15.591553 
29887500    1993.6813   -661.53349    303204.14     15.05447 
29888000    2148.6229    -679.7685    304047.47    15.225871 
29888500     1934.425   -643.72342    305574.41    15.038158 
29889000    2116.1585   -662.74664    302476.21     15.14924 
29889500    1963.8815   -679.53159    301853.23    15.383051 
29890000    1990.7316   -678.98514    299778.85    15.504745 
29890500     1796.846   -613.05395     301700.3    15.016467 
29891000    2103.6491   -709.57165    293407.03    15.749528 
29891500    2053.1111   -721.91464    299498.71    15.749984 
29892000    1919.7251   -679.51502    301921.07    15.433648 
29892500    1958.5667   -644.97654    298741.34    15.199869 
29893000    1988.7674   -662.02931     300457.4    15.263859 
29893500    1991.7761   -632.52538    302417.04    15.111333 
29894000    2062.0469   -694.51674    301728.68    15.542808 
29894500    2098.3501   -688.24509    302464.93    15.596612 
29895000    2134.6358   -692.41575    296323.95    15.673767 
29895500    2151.1938   -624.76294    308476.07    15.096357 
29896000    1781.1539    -625.4739    303352.86    14.999033 
29896500    1851.3316   -638.98279    296289.75    15.164433 
29897000    1839.6937   -692.38031    298978.07    15.644903 
29897500    2062.8755   -700.83856    303139.95    15.546682 
29898000    1950.5223   -702.68363    299713.07    15.513103 
29898500    2033.9529   -646.13662    298597.73    15.203022 
29899000    2086.8582   -658.42376    300784.71    15.238672 
29899500    2050.3645   -642.40883    303537.95    15.005289 
29900000    1823.0092   -689.00545    296017.36    15.372471 
29900500    1992.6385   -624.31463    307451.22    14.907135 
29901000    2018.5784   -656.74787    303190.04    15.169081 
29901500     2080.602   -722.39039    299284.34    15.637698 
29902000    2035.4812   -707.54589    301767.12    15.482239 
29902500    2055.9061   -688.46736    301582.06    15.249538 
29903000     1990.271    -673.4585    300240.83    15.285834 
29903500    2003.6784   -639.67161     306326.7    15.009611 
29904000    2068.5716   -661.75967    301203.32    15.229378 
29904500    1875.4368   -695.09808     296457.5    15.340286 
29905000    1945.3002   -686.41189    300160.87    15.272788 
29905500    1992.7114   -699.30859    299872.84    15.344434 
29906000    2046.2028   -724.82325    301303.03    15.473191 
29906500    1906.3274    -718.4937    296520.67    15.565923 
29907000    1889.5332   -642.54706    301504.29    15.025903 
29907500    2082.6152   -667.61273    301936.62    15.038244 
29908000    1940.7939   -685.19521    297514.65    15.125727 
29908500    1906.7893   -658.38731    301429.11     14.98367 
29909000    1851.5743   -718.78108    298814.69    15.428587 
29909500    2053.9848   -633.16834    299886.86    14.716284 
29910000    2279.0065   -586.60595    290874.23     14.51466 
29910500      1998.61   -570.67782    333603.64    14.396452 
29911000     2057.001   -576.67226    303256.96    14.418236 
29911500    2002.8334   -583.12037    290159.67    14.445041 
29912000    2161.2359   -706.48939    307627.58    15.099664 
29912500    2165.8681   -760.09501    297314.62    15.664193 
29913000    1987.1388    -725.1703    301273.46    15.271484 
29913500    2084.9402   -754.18921     301042.4    15.687317 
29914000    2098.9574   -761.01011    305850.94    15.592745 
29914500    2173.3377   -729.65991    301764.05    15.265553 
29915000    2104.3051   -708.69646    302550.96    15.143421 
29915500    2104.4891   -711.52144    299359.13    15.515705 
29916000    2124.5467   -642.14683    302444.73     15.04047 
29916500    1897.1994    -718.1099    297564.25    15.558883 
29917000    2030.6444   -689.87298    303891.52    15.188658 
29917500    1961.3963   -699.83111    294109.24    15.355247 
29918000    2038.6153    -695.7819     296867.9    15.428993 
29918500    2118.0504   -632.30978    298200.19    14.795054 
29919000    1959.9287   -631.60726    291344.46    14.817603 
29919500     1974.094   -654.06922    290830.19    14.738082 
29920000    1978.9938   -650.79632    310466.21    14.674173 
29920500    1919.5086   -644.24898    302610.22    14.555109 
29921000    2144.7862   -628.31446    309283.81    14.396336 
29921500    2117.0161   -681.13139    303818.97    14.629071 
29922000    1789.3793   -696.95434    290912.78    14.697846 
29922500    1865.8702    -662.8606    299012.81    14.697722 
29923000    2032.7143   -639.05181    307270.96    14.578264 
29923500    2080.9867   -653.93793    299937.48    14.708351 
29924000    2021.3593   -750.34099    296822.93    15.493147 
29924500    2060.9387   -737.82041    302741.75    15.308647 
29925000     1833.773   -712.18872    307840.05    15.268478 
29925500    1867.7164   -744.23981    305613.85    15.610055 
29926000    1704.4308   -739.89288     299581.7    15.558866 
29926500    1988.4107   -711.16778    299713.25    15.347089 
29927000    1979.1627   -711.25846    296011.77    15.415183 
29927500    2086.9618   -729.07734    299030.08    15.387517 
29928000    2074.9876   -725.73361    309279.91    15.219315 
29928500    1808.1511   -750.22744    305701.25    15.364435 
29929000      1773.97   -720.82657    309525.45    15.082948 
29929500    1934.6287   -699.90296    302093.33     14.98102 
29930000    1853.1246   -736.65757    298285.76    15.266548 
29930500     2072.203   -724.10324    299369.35    15.101623 
29931000    1893.4081   -726.02142     299664.5     15.23896 
29931500    1951.2129   -752.50215    295433.29     15.52317 
29932000    2066.2604   -689.46467    303953.92    14.903768 
29932500    1833.5198   -591.53784    295139.88    14.391988 
29933000    2043.5708   -578.82022    289603.86    14.322632 
29933500     1829.218   -647.70567     301161.8    14.819832 
29934000    2043.5287   -676.39377    299201.34    15.001195 
29934500    1894.6364   -678.61252    300068.75    15.108347 
29935000    1931.2806   -682.48503    303429.58    15.106356 
29935500    1984.7994   -667.99894    295647.13     15.05129 
29936000    2014.4632   -670.88329    298878.93    15.174207 
29936500    2027.6117   -645.99252    300869.39    14.989969 
29937000    1945.4002   -644.49008    301139.85     15.05505 
29937500    1984.3008   -742.10476    283129.78    15.696574 
29938000    1933.2804   -730.43494    294034.72    15.584617 
29938500    1855.0092   -735.50685     297231.7    15.561079 
29939000    1973.1769   -707.30461    296123.98    15.251005 
29939500    2041.3252    -583.8246    313163.08    14.512686 
29940000    1928.2699   -587.01655    303660.61    14.563221 
29940500    2040.7078   -587.26173     298480.7    14.701536 
29941000    2120.2633   -592.15808    295473.42    14.604071 
29941500    1989.7376   -604.75871    298406.93    14.570401 
29942000    1814.1672   -591.25708    286906.98    14.595632 
29942500    2043.5094    -580.5639    294469.87    14.538124 
29943000    1927.0636   -589.86923    296802.97    14.472467 
29943500    2060.1397   -580.84844    299650.17    14.471304 
29944000    2039.8283   -577.33621    296220.22    14.483465 
29944500    2302.6337    -599.8723    295473.58    14.389663 
29945000    1974.6554   -600.30975    294060.73    14.360215 
29945500    1983.0893   -586.78792    292445.49    14.411539 
29946000    2136.6272   -569.33176    328461.91    14.294381 
29946500    2022.1393   -728.94507    297951.25    15.247513 
29947000    2064.2886   -726.33902    297695.46     15.26215 
29947500     2053.615   -703.96364    309335.23    15.185512 
29948000    2088.9315   -677.47406    300975.61    15.093173 
29948500    2248.0384   -658.98625    297324.38     14.71608 
29949000    1995.9864   -699.88059    301878.22    15.135877 
29949500    2105.4779    -660.8852    301467.43    14.872722 
29950000    2033.2846   -573.84116    307018.25    14.293035 
29950500    1835.1044   -669.51355    295614.25    15.047112 
29951000    1966.0728   -702.93235    294702.01    15.201886 
29951500    2211.3978   -749.09414    306168.98    15.429213 
29952000    2184.1435   -756.33595    279643.88    15.425509 
29952500      1713.93   -721.92684     301337.3     15.01784 
29953000    1882.7271   -712.81583    304443.39    14.833832 
29953500     2128.138   -703.08042       300522    14.707213 
29954000    1973.3436   -694.77426    291747.29    14.652859 
29954500    2041.6035   -723.44319    301921.04    14.836492 
29955000    2016.1206   -729.91965    296670.11    14.931125 
29955500    1914.1873   -732.90933    290181.15    15.083781 
29956000    2064.8741   -647.02154    295835.45    14.398158 
29956500    1907.6973   -620.58901    315611.97    14.335103 
29957000    2017.1768   -613.76206    305672.27    14.430259 
29957500    1933.4681   -685.34862    297354.66    14.947608 
29958000    2048.0834   -700.16111    297393.46    15.065554 
29958500    2028.8242   -661.12334    298253.25    14.829163 
29959000    1962.3334   -641.08627    296482.31      14.6542 
29959500    2082.4985    -639.6035    313000.52     14.61825 
29960000    1908.5298    -747.5651    297340.69    15.456436 
29960500     1915.365   -719.15114    298955.57    15.200105 
29961000    1882.6067   -751.68179    299192.91    15.514775 
29961500    1954.7167   -727.00543    303444.48    15.261854 
29962000    1911.6856    -708.6036     302976.9    15.162762 
29962500    1917.8425   -741.60857    298593.76    15.417913 
29963000    2035.8641   -743.52786    293257.99    15.410079 
29963500    1981.1742   -696.88368    298588.29    15.164961 
29964000     1779.303   -754.28074    297045.66    15.569867 
29964500    1984.9326   -700.99887    298275.33    15.028127 
29965000    1978.9085   -739.63112    299900.95    15.315903 
29965500    1849.3292   -746.52343    298893.21    15.558721 
29966000    1899.3169   -759.25495    297797.34    15.663235 
29966500    1968.6525   -702.89235    305304.33    14.946338 
29967000    1743.8089   -745.22335     296011.3    15.389473 
29967500    2055.0239   -699.65969    305500.74     14.94175 
29968000    1825.8554   -760.62545    305941.09    15.500721 
29968500    1952.3173   -725.65576    288485.99    15.353724 
29969000    1931.5128   -728.58442    299775.92     15.35838 
29969500    2170.0277   -715.71671    306114.96    14.934968 
29970000    2053.0746   -720.90126    303056.77    14.976832 
29970500    1993.3463   -726.34542    299727.63    15.240827 
29971000    2111.2884   -719.72368       298828    15.135481 
29971500    2233.0196   -728.97747    301223.17    15.090899 
29972000    1859.2072   -745.76669    303062.78    15.314625 
29972500    2008.9597   -732.20765    294675.68    15.185009 
29973000    1939.7902     -611.821    309996.96    14.410666 
29973500    2142.3592    -628.4135    293072.42    14.460114 
29974000    2093.2083   -633.58789    302133.98    14.576374 
29974500      2010.45   -652.49399    300483.53    14.801653 
29975000    1863.2509    -652.9928    301454.79    14.709672 
29975500    1885.1627   -636.96442    304369.94    14.713424 
29976000    2143.5521   -705.86651    305881.95    15.213372 
29976500    1942.9479   -696.29296    295512.89    15.386081 
29977000    2112.0121   -701.25315    299487.59     15.45395 
29977500    2011.5322   -674.57756    300257.25    15.242557 
29978000     2036.531   -684.64666    296632.04     15.19031 
29978500    2085.7143   -636.74444    293577.14    14.814763 
29979000    2139.5816   -712.67152     298715.5    15.384223 
29979500    2009.1704   -744.10912    280470.34    15.649261 
29980000    1919.6422   -725.55264    295737.11    15.361306 
29980500    2023.0988   -705.68511    290269.09    15.022836 
29981000    1949.1268   -660.07555    300684.55    14.694722 
29981500    2000.8107   -682.33728    287945.54    14.780244 
29982000    2036.4644   -662.48331    306693.95    14.660849 
29982500    1938.3628   -671.41501    298329.31    14.647828 
29983000    2259.4239   -671.43241    305926.62    14.639393 
29983500    1904.6552   -689.96139    298332.53     14.75981 
29984000    1873.6234   -705.60055    286874.31    14.818219 
29984500    1979.3247   -706.64972    307231.38    14.773177 
29985000    2020.0169   -728.02316    301265.06    14.975777 
29985500    2080.1071   -661.54714    301707.25    14.597591 
29986000     1996.147   -729.57412    297333.22    14.968773 
29986500    1936.1669   -651.95854    302026.09    14.517693 
29987000    2233.6137   -698.73379    287134.53    14.878372 
29987500    2003.8455   -710.27958     299638.2    14.911109 
29988000    1824.9615   -721.45439    292519.15    15.050269 
29988500    1962.1863   -696.57658     299327.4      14.8869 
29989000    1902.0274   -700.29211    301204.88    14.879113 
29989500    1993.3225   -643.92208    310471.01    14.577594 
29990000    1871.8802   -703.42248    295858.92    14.961838 
29990500    1801.3032   -718.27582     296278.3    15.064862 
29991000    1934.9756   -654.51405    304895.42    14.656189 
29991500    2114.5747   -684.21581    298746.45     14.87417 
29992000    1923.0797   -636.68057    305574.81     14.67864 
29992500    1926.7436   -618.81645    308675.17    14.619118 
29993000     1986.688   -635.46571     297442.7    14.786835 
29993500    1962.6256   -653.27018    296727.29    14.824236 
29994000    2072.0636   -741.55832    299269.93    15.380983 
29994500    2225.6772   -695.37329    289398.07    14.872634 
29995000    1864.0073    -732.2389    297705.49    15.317454 
29995500    2004.4993   -730.22387    301315.51    15.393368 
29996000    1878.8648   -755.52042    313576.98    15.580977 
29996500    2020.1518   -710.45587     302603.8    15.170053 
29997000    2032.0601   -745.93428    310460.97    15.481955 
29997500     1982.377   -729.36186    288854.01    15.283469 
29998000    1952.0469   -714.97779    305462.78    15.165616 
29998500     2154.561   -724.92633    306921.52    15.300098 
29999000    1879.1672   -712.45289       290296    15.219701 
29999500    1972.2384   -726.14912    303464.39    15.259603 
30000000    1856.5401   -753.30957    303202.47    15.381223 
Loop time of 66718.6 on 6 procs for 15000500 steps with 250 atoms

Performance: 38.851 ns/day, 0.618 hours/ns, 224.833 timesteps/s
99.4% CPU use with 6 MPI tasks x no OpenMP threads

MPI task timing breakdown:
Section |  min time  |  avg time  |  max time  |%varavg| %total
---------------------------------------------------------------
Pair    | 3704.9     | 3817.2     | 3937.8     | 118.6 |  5.72
Neigh   | 106.12     | 107.11     | 107.94     |   5.4 |  0.16
Comm    | 834.52     | 959.65     | 1076.6     | 249.5 |  1.44
Output  | 356.1      | 356.13     | 356.22     |   0.2 |  0.53
Modify  | 61418      | 61427      | 61436      |   2.2 | 92.07
Other   |            | 51.72      |            |       |  0.08

Nlocal:    41.6667 ave 51 max 36 min
Histogram: 1 0 2 0 2 0 0 0 0 1
Nghost:    1126.17 ave 1139 max 1112 min
Histogram: 1 1 0 0 1 0 1 0 1 1
Neighs:    3381 ave 4263 max 2894 min
Histogram: 1 0 2 2 0 0 0 0 0 1

Total # of neighbors = 20286
Ave neighs/atom = 81.144
Neighbor list builds = 748578
Dangerous builds = 0

write_data	data.final
Total wall time: 18:32:04
