LAMMPS (8 Feb 2019)
Processor partition = 2
echo both

include         in.partitions
variable p_id world   0 1 2 3 4 5
include		in.temp
variable	temperature equal 2000.
variable	tempDamp equal 0.1 # approx 0.1 ps
include		in.pressure
variable	pressure equal 300000.
variable	pressureDamp equal 1.0
include 	in.seed
variable	seed world 74581 93734 128321 21934 495716 871038
units		metal
read_restart    Restart.lmp.${p_id}
read_restart    Restart.lmp.2
  restoring atom style atomic from restart
  orthogonal box = (-0.205591 -0.205591 -0.205591) to (15.2056 15.2056 15.2056)
  1 by 2 by 3 MPI processor grid
  pair style eam/alloy stores no restart info
  250 atoms
include 	in.setup
variable	out_freq equal 500
variable	out_freq2 equal 500

neigh_modify    delay 10 every 1
include		in.al
### Argon Potential Parameters ###
pair_style 	eam/alloy
pair_coeff 	* * Al99.eam.alloy Al

timestep	0.002 # According to Frenkel and Smit is 0.001

thermo          ${out_freq}
thermo          500
thermo_style 	custom step temp pe press lx


restart 	${out_freq} Restart.lmp.${p_id} Restart2.lmp.${p_id}
restart 	500 Restart.lmp.${p_id} Restart2.lmp.${p_id}
restart 	500 Restart.lmp.2 Restart2.lmp.${p_id}
restart 	500 Restart.lmp.2 Restart2.lmp.2



timer 		timeout 23:50:00 every 1000
New timer settings: style=normal  mode=nosync  timeout=23:50:00

# NPT

include		in.dump
dump            myDump all atom ${out_freq2} dump.al.${p_id}
dump            myDump all atom 500 dump.al.${p_id}
dump            myDump all atom 500 dump.al.2
dump            myDcdDump all dcd ${out_freq2} out.${p_id}.dcd
dump            myDcdDump all dcd 500 out.${p_id}.dcd
dump            myDcdDump all dcd 500 out.2.dcd
dump_modify	myDump append yes
dump_modify     myDcdDump append yes



fix             1 all plumed plumedfile plumed.dat outfile plumed.out
fix             2 all nph iso ${pressure} ${pressure} ${pressureDamp}
fix             2 all nph iso 300000 ${pressure} ${pressureDamp}
fix             2 all nph iso 300000 300000 ${pressureDamp}
fix             2 all nph iso 300000 300000 1
Resetting global fix info from restart file:
  fix style: nph, fix ID: 2
fix             3 all temp/csvr ${temperature} ${temperature} ${tempDamp} ${seed}
fix             3 all temp/csvr 2000 ${temperature} ${tempDamp} ${seed}
fix             3 all temp/csvr 2000 2000 ${tempDamp} ${seed}
fix             3 all temp/csvr 2000 2000 0.1 ${seed}
fix             3 all temp/csvr 2000 2000 0.1 128321
fix             4 all momentum 10000 linear 1 1 1 angular

run             30000000 upto # 60 ns
All restart file global fix info was re-assigned
Neighbor list info ...
  update every 1 steps, delay 10 steps, check yes
  max neighbors/atom: 2000, page size: 100000
  master list distance cutoff = 8.28721
  ghost atom cutoff = 8.28721
  binsize = 4.1436, bins = 4 4 4
  1 neighbor lists, perpetual/occasional/extra = 1 0 0
  (1) pair eam/alloy, perpetual
      attributes: half, newton on
      pair build: half/bin/atomonly/newton
      stencil: half/bin/3d/newton
      bin: standard
Per MPI rank memory allocation (min/avg/max) = 4.002 | 4.003 | 4.003 Mbytes
Step Temp PotEng Press Lx 
14999500     1922.151   -691.29445    299869.82    15.411182 
15000000    2111.7932   -645.14035    306203.97     14.97129 
15000500    2043.5668   -704.85586    307319.87    15.377923 
15001000    1888.3416   -628.10302    304065.65    14.823897 
15001500     2168.334   -645.01455    301407.21    14.824243 
15002000    2121.9856   -642.15058    297094.69    14.725871 
15002500    2073.1402   -649.00713    304797.34    14.828459 
15003000    2139.3748   -664.03606    296852.43    14.889208 
15003500    1847.3173   -684.00138    295455.69    15.074474 
15004000    2010.9384   -631.64058    301472.49    14.774112 
15004500    2205.5441   -697.42845    304728.39    15.160502 
15005000     1968.634   -649.11042    298801.04    14.733001 
15005500     2256.423   -578.80168    304718.67    14.373932 
15006000    2071.0815   -579.00889    316404.56     14.37567 
15006500    1948.1728   -584.91879    293589.18    14.385526 
15007000    1968.1713   -633.38591    298816.24     14.68516 
15007500    2037.6274   -576.80549     317577.8    14.359938 
15008000    1928.8968   -581.19776    302843.65    14.381291 
15008500    2009.5411   -602.78491    294203.44     14.44627 
15009000    2172.1154   -625.16314    298547.01    14.556925 
15009500    1960.6625   -720.88302    289122.81    15.358987 
15010000    2069.0894   -748.01414    301952.45    15.581811 
15010500    1934.1463   -749.97081    296059.24    15.562891 
15011000    1987.7877   -725.35698     301147.7    15.413621 
15011500    2072.2197   -734.29249    303548.33    15.428104 
15012000    2002.5133   -732.84469    298427.84    15.451165 
15012500    2069.3002   -739.00062    295772.47    15.323398 
15013000    2068.7679   -734.83764    300553.05    15.373053 
15013500    2004.9604    -700.5452    305354.94    15.089711 
15014000    1944.9519   -709.79529    298156.51    15.042669 
15014500    2044.5936   -689.67135    303813.94     14.90595 
15015000    1933.0844   -759.93765    308735.45    15.485662 
15015500    2165.8235   -752.08283    314092.25    15.392564 
15016000    2053.8515   -658.98056    308398.21    14.642048 
15016500    2028.8166   -669.87327    300477.58    14.673445 
15017000    1876.5895   -666.91545    298387.62    14.806232 
15017500    1991.9411   -673.79206    300644.86    14.671296 
15018000    1921.1203   -741.51407    301972.96    15.268461 
15018500    2084.8147   -713.12616    307898.47    15.038415 
15019000    1858.4397   -754.29022    304211.86    15.441291 
15019500    2079.1576   -738.37724    303768.45    15.364219 
15020000    2007.3018   -650.80086    300704.95       14.681 
15020500    1928.4198   -669.66172    297399.26    14.735043 
15021000    2176.8349   -683.54335    300804.15    14.965414 
15021500    2026.6254   -650.76073    305340.28    14.888943 
15022000     2049.289   -698.55782    305993.02     15.05793 
15022500    2086.8485   -657.38833    306825.74    14.972487 
15023000    2146.5325   -681.28821    301385.56    14.972182 
15023500    1847.5077    -720.0462    283438.01    15.344877 
15024000    1974.7362   -614.59598    306439.64    14.401307 
15024500    1944.8299   -620.36736    300015.69    14.453879 
15025000    2147.7624   -627.25365     298493.2    14.467522 
15025500    1926.2461   -678.44035    296544.23    14.679041 
15026000    2050.8286   -654.91369    307554.01    14.663495 
15026500    2129.9745   -680.33254    294863.94    14.729246 
15027000      2140.75   -659.54384    303287.28    14.659075 
15027500    1889.0444   -636.56488    302098.49    14.731014 
15028000    2111.2354   -709.86287    308557.59    15.359273 
15028500     1957.912   -738.88207    300038.34    15.548363 
15029000    1965.6533   -645.51505    293967.34    14.717849 
15029500    2012.9682   -574.37814    308976.78    14.239639 
15030000    2038.4968   -575.57139    312314.06    14.213293 
15030500    1955.0765   -611.99348     304147.7    14.394929 
15031000    2196.5496   -658.27816     305946.6    14.662385 
15031500    2027.1063   -680.47907     296637.2    14.630421 
15032000    1971.0223   -675.36031    294748.76    14.705147 
15032500    2108.7904   -666.76162    308490.41    14.519123 
15033000     2104.186   -687.18435    300738.98      14.6477 
15033500    1992.4845   -687.54842    296842.06    14.646262 
15034000    2215.4179   -677.40097    298789.51    14.679961 
15034500    1969.7965    -689.8774    286637.45    14.688095 
15035000    2073.7244   -659.67507     308168.4    14.539274 
15035500    1960.1809   -685.81981    297018.15    14.680792 
15036000    2073.9354   -685.40807    292701.53     14.64835 
15036500    1785.6046   -732.21183    293341.22    15.157198 
15037000     2124.183   -719.54808    302567.99    14.834178 
15037500    1881.9815    -719.1813    300465.41    14.861886 
15038000    1939.3884    -711.7831    303551.81    14.788418 
15038500    1976.9804   -679.28064    305022.28    14.589331 
15039000    2063.4382   -675.39029    308578.56    14.569555 
15039500    2017.3901   -704.12442    296112.56    14.807833 
15040000     2043.461   -626.17443    298939.37    14.418175 
15040500    2107.1378   -629.92314     293051.5    14.426293 
15041000    2168.8157   -635.48153    295532.51    14.497821 
15041500    2027.4354   -706.92242     310834.1    14.910262 
15042000    2112.1629   -709.75578     305948.6    15.006446 
15042500    1841.5608   -704.89357    300988.34    15.104774 
15043000    2080.6111   -710.65278    300908.04     15.11244 
15043500    2091.1193   -655.88268    297586.32    14.898365 
15044000    2174.3949   -692.32019    305813.07    15.126959 
15044500    2037.9311   -685.29354    302802.75    15.184461 
15045000    2079.3097   -635.45186    297573.65    14.776999 
15045500    1974.6805   -709.28341    295651.71    15.461135 
15046000    1980.1053   -698.86544    304819.59    15.350906 
15046500    1994.7278   -672.74483    295493.28    15.090335 
15047000    2129.8351   -615.06247     311120.8    14.672945 
15047500     1886.521   -675.59707    297234.41     14.95255 
15048000    2088.8639   -748.37702    300216.77    15.643638 
15048500    1882.5201   -751.12259    301376.83    15.640654 
15049000    1831.3913   -735.63438    297154.94    15.409277 
15049500    2095.5476   -662.14085    298353.75    14.775844 
15050000    1926.2663   -593.17711    288637.79    14.522775 
15050500    1863.1447   -576.50775    304528.68    14.473015 
15051000    1878.3044   -587.15504    299567.08    14.567969 
15051500    1900.3865   -585.05423    299547.99    14.600856 
15052000    2046.2749   -585.67371    298520.23      14.5907 
15052500    2088.4543   -578.01223    313832.28    14.522012 
15053000    1924.2961   -739.12542    292066.81    15.684724 
15053500    1978.3933   -679.06134    297772.23    15.242845 
15054000    1915.0695   -694.21873    297693.44    15.314803 
15054500     2042.799   -694.89623    299991.72    15.303913 
15055000     2056.548    -720.0049    301622.39    15.724582 
15055500    1721.2704   -677.36258    295863.19    15.387647 
15056000    1880.9135   -683.36704    296552.45    15.331984 
15056500    2176.8212   -657.39494    295373.72    15.279933 
15057000    2012.3979    -665.5101    292739.35    15.240827 
15057500    2095.6021   -675.17128    304763.65    15.251582 
15058000    1750.6474   -644.66649    296273.23    14.980119 
15058500    1861.5534   -596.99784    298758.49     14.66834 
15059000    2170.5408   -592.93228    307066.42    14.545668 
15059500    1953.3756   -580.06636    308103.73    14.584651 
15060000    1898.9324   -603.94039    300003.89    14.760958 
15060500     2139.914   -627.11609    306589.71    14.711376 
15061000    2117.6346   -742.11877    302877.93    15.568861 
15061500    1932.3134   -742.91525    298028.86    15.629075 
15062000    2000.1743   -749.09986    300033.26     15.63549 
15062500    2086.7683   -751.78632    298610.11    15.448094 
15063000    2044.7217   -737.24562    305013.61    15.340313 
15063500    1948.7511   -746.94823    300381.41    15.457018 
15064000     2027.731   -744.78658    300466.51    15.459581 
15064500    2031.0116   -757.31571    300052.23    15.536238 
15065000    2008.7501   -745.63261    303324.62    15.315507 
15065500    2082.4177   -720.83851    307636.68     15.11756 
15066000    1936.8923   -718.13494    291459.18    15.023369 
15066500    1931.5105   -729.61799    291147.94    15.153808 
15067000    2204.5794   -735.55808    313194.27     15.26631 
15067500    1999.9062   -711.72215    285901.22     15.05562 
15068000    1985.3975   -714.57084    301099.97    15.101153 
15068500    1959.4832    -713.7087    300388.61    15.038803 
15069000    1934.6956   -693.92607    308680.89    14.905542 
15069500    2127.9859   -682.66149    296618.39    14.813003 
15070000      1932.29   -739.81415    311340.05    15.327432 
15070500    1933.6901   -739.43149    301869.03    15.283073 
15071000     2039.807   -650.92029    308035.57     14.62664 
15071500    2020.7935   -745.34486    291296.05    15.256054 
15072000    1986.2642   -716.75339    304052.49    15.054447 
15072500    2098.9418   -707.16544    308085.03    14.934787 
15073000    2182.9865   -714.13473    292378.36    14.996513 
15073500    2031.2831   -676.65862     302505.5    14.737618 
15074000    2234.7722    -714.1328    312249.11    14.974358 
15074500    1994.3047   -652.76329    307495.01     14.66631 
15075000    2036.7734   -653.72915    311103.65    14.658884 
15075500    1975.3307   -651.23457    292933.12     14.70952 
15076000    2018.5082   -733.77129    301272.18    15.352253 
15076500    1884.4773   -750.59306     294521.1    15.400505 
15077000    1898.6401   -706.41019    284004.84    14.980025 
15077500    1914.0163   -738.91304    309692.02     15.28333 
15078000    2001.8856   -758.51227    273731.26    15.468134 
15078500    2252.8166   -702.46713    293133.34    15.019087 
15079000    1953.3474   -704.14185     312524.8    14.971232 
15079500    2280.3602   -716.99198    296767.03     15.16975 
15080000    1985.0989   -716.62933    293469.22    15.080985 
15080500    1930.5988   -761.46617    286568.84    15.511208 
15081000    1947.7153   -719.42567    294560.15    15.041487 
15081500    2070.6715   -750.66846    296552.79    15.428918 
15082000    2134.7407   -696.48555    302225.41    15.000351 
15082500    1864.5174   -704.44545    302030.03    15.093531 
15083000     2150.194   -719.96204    299883.42    15.111071 
15083500    1900.9879   -703.37296    301544.71    15.001636 
15084000    2012.3397   -760.09877    291495.67    15.479611 
15084500     2007.945   -661.06294    300335.03    14.730966 
15085000    2079.5434   -668.25747    297543.15     14.78314 
15085500    1942.2618   -665.33594    293503.37     14.67512 
15086000    1929.0372    -757.0969    298037.63    15.529914 
15086500    2110.4775   -668.19317    295833.99     14.69605 
15087000    2029.5092   -685.51977    303367.68    14.826661 
15087500    2038.8918   -695.86957     306428.6    14.937418 
15088000    2076.5887    -726.5376    295793.87    15.189613 
15088500    2280.6482   -718.61902    302710.79    15.161734 
15089000    2005.5155   -689.84225    301900.18    15.103107 
15089500    2069.0183   -684.28603    304215.84    14.978522 
15090000    1974.6881   -625.38519    320501.83    14.549889 
15090500    1927.1784    -672.8164    289354.06     14.79427 
15091000    1966.7958   -671.48425    290363.33    14.757838 
15091500    1897.3384   -658.20026    309292.49     14.64048 
15092000    2079.1488   -659.19581    305856.49     14.70195 
15092500    2089.2857   -708.33312    306221.73    15.090324 
15093000    1832.3279    -703.6259    293673.93    15.182262 
15093500    2060.5913   -672.85679    300838.68    15.042654 
15094000    2111.7156   -574.26833    318723.48    14.501807 
15094500    1818.9654   -620.28035     295967.1    14.889595 
15095000    1978.0097   -707.26928    303900.44    15.569695 
15095500    1931.2686   -743.03143    303292.98    15.782312 
15096000    1838.4355   -748.15933     299522.7    15.857104 
15096500    1976.8662   -692.39968    300550.06    15.302494 
15097000    1919.0382   -599.97183    299440.87    14.822295 
15097500    1956.3358   -601.64177    299943.04    14.738611 
15098000    2069.5926   -702.60443    304747.51    15.141452 
15098500    2051.1072   -750.59458    302017.99    15.457198 
15099000    2014.8111   -754.12437    297889.02    15.632146 
15099500    2091.6004   -690.14162    305019.94     14.95541 
15100000    1944.8075   -744.44278    305139.49     15.41843 
15100500    1878.1453   -735.45545    301816.38    15.382223 
15101000    1892.2676   -737.17319    301146.39    15.371725 
15101500    2055.1771   -742.02265    298280.19    15.505408 
15102000    1890.5301     -733.972     302259.1    15.505126 
15102500    1906.3989   -707.45274    299763.86    15.208901 
15103000    1876.9397   -718.45128    297798.25    15.234956 
15103500     2114.453   -696.72811    301953.67    15.139931 
15104000    2125.9211   -671.93071    297189.69    14.963195 
15104500    1991.9321   -673.27535    297187.45    14.923601 
15105000    1827.2831   -693.31411    301703.29    15.057417 
15105500    2116.2701   -690.45284    304733.85    15.073866 
15106000    2026.6835   -701.26051    302840.04    15.125488 
15106500    1941.4376   -651.24626    293974.29    14.934228 
15107000    2003.3733    -653.0794    295331.18    14.877168 
15107500    2011.9471   -650.31811    293760.14    14.784755 
15108000    1766.9268   -645.25553    298254.48    14.977439 
15108500     1975.489   -660.60468    301403.51    15.119756 
15109000    2018.1844   -662.89627    302031.93    15.077802 
15109500    1927.1227   -655.90277    300739.42    15.071434 
15110000    1850.1225   -678.48828    298573.89    15.336736 
15110500    1792.0623    -671.2671    294440.45    15.194113 
15111000    2156.4933   -684.59194    298581.93    15.304528 
15111500    2101.6549   -675.83099    303293.12    15.282477 
15112000    2075.4486   -628.57009    302133.67     14.83497 
15112500    1957.1998   -712.42745    298413.78    15.508305 
15113000     2133.521   -644.56631    304350.28    15.096948 
15113500    1927.4116   -699.82572    297401.87    15.455753 
15114000    1819.3047   -670.99005    299287.19    15.131897 
15114500    1871.1763   -698.53758    302772.48    15.299686 
15115000    1922.2247    -704.8719       300401    15.318623 
15115500    2029.0247   -713.95803    307572.84     15.24348 
15116000    2033.9706   -750.06539    298734.45    15.797445 
15116500    2085.2291   -734.30494    296952.59    15.599363 
15117000    1870.1239   -720.29859    299228.02    15.455166 
15117500     2018.039   -745.65222    302644.11    15.610943 
15118000    1922.3492   -749.47232    300541.25    15.652278 
15118500     2015.965   -693.02288    298097.35    15.016595 
15119000      1979.14   -641.52593    291715.15    14.756821 
15119500    1766.7444    -646.8071     300923.7    14.782077 
15120000    1945.8273   -750.44772    307066.16    15.649523 
15120500    1909.4565    -744.5949    301180.48    15.583829 
15121000    2000.4381   -749.61556    300794.51      15.5213 
15121500     2016.145   -738.87895     303517.7    15.477685 
15122000    2033.7108   -746.47015    311949.22    15.618302 
15122500    2127.7298   -745.21625     300803.9    15.591507 
15123000     1997.547   -733.07858    300633.49    15.415582 
15123500    2343.4645   -741.13915       305174    15.428192 
15124000     2087.597   -657.99643    303041.37    15.106023 
15124500    1983.3852   -692.63133     300206.6    15.331838 
15125000    2029.5059     -658.674       302956    15.123512 
15125500    1984.7273   -680.82702       290131    15.284126 
15126000     2072.145   -650.98768    302545.28       15.086 
15126500    1986.2904   -654.08451    300284.84    15.097192 
15127000    2163.6727   -678.19036    295582.98    15.072954 
15127500    1922.1986   -667.04813    295371.06    15.125938 
15128000    2144.8197   -577.45422    297923.65    14.414032 
15128500    1969.2962   -587.08845    297072.77    14.438166 
15129000    2124.8466   -640.90595    301101.17    14.708611 
15129500    1897.3229   -623.62218     299152.4    14.725342 
15130000    1988.0536    -655.3217       308214     15.08341 
15130500     2104.399   -683.38885    305741.63    15.230239 
15131000    1973.4207   -706.58837    292397.17    15.422124 
15131500    2000.0961   -682.59969    297504.38    15.216723 
15132000    2044.9699   -674.45631    300108.56    15.258934 
15132500     2247.902   -642.77569    304984.24    14.916294 
15133000     1936.359   -669.68134    298426.89     15.05981 
15133500    2049.8634   -689.40484    300695.36    15.205893 
15134000    2031.1808   -711.83386    289080.31     15.26713 
15134500    1988.5457   -638.30632    302037.18    14.674939 
15135000    1917.1797   -651.44358    306135.41    14.679583 
15135500    1926.8567   -590.38121    293800.45    14.393629 
15136000    2098.6713   -589.59112    298944.18    14.381432 
15136500    1874.6638   -586.24572     283492.9    14.260028 
15137000    2148.3729   -708.11285     304930.6    15.058805 
15137500    1902.3578   -706.60712    296564.59    15.163463 
15138000    1989.9709   -683.87574     302635.3    14.968671 
15138500    2025.6044   -662.90836    297712.66     14.73955 
15139000    2009.8937   -663.17809    296182.15    14.632382 
15139500     2005.584   -693.97358    304957.94    14.680719 
15140000     1919.935   -685.97925    301560.58    14.602554 
15140500    1921.8162   -726.51774    297042.94    15.005605 
15141000    2025.6704   -739.16426    292710.27    15.078705 
15141500    1872.7785    -692.2882    289128.06    14.704845 
15142000    1907.3813   -685.46667    301987.38    14.631299 
15142500    1989.9918   -690.57324    293682.39    14.655891 
15143000    1892.6502   -687.52679    291765.88    14.715599 
15143500    2070.0037   -741.34901       295555    15.114433 
15144000    1921.2721   -758.79055    292565.71    15.454665 
15144500    1861.4347   -732.05834    300992.34    15.301565 
15145000    2155.6459   -713.97678    301127.42    15.155502 
15145500    1939.6743    -687.4927    294896.48    15.158645 
15146000    2047.8309   -677.07097    300110.68    15.013474 
15146500    1957.7406   -709.40576    277641.71    15.345912 
15147000    2218.4625   -677.26338    289596.68    15.203187 
15147500    1920.9395   -683.16699    299469.23    15.272334 
15148000    2053.8961     -716.552    300183.67    15.533931 
15148500     2225.614    -629.2912    307222.79    14.970551 
15149000    2005.2484   -689.74398    302361.74    15.547461 
15149500    2256.1245   -698.89143    301028.75    15.396884 
15150000    2005.0893   -647.29751    290478.53    15.186762 
15150500    2056.5525   -657.96077    296961.56    15.118312 
15151000    2155.9157    -636.3546    298003.04    14.964091 
15151500    2134.8306    -676.2545    301607.13     15.32004 
15152000    1846.8856   -650.67412    299874.48     15.14322 
15152500    1968.1604   -628.62937    298828.26    15.000808 
15153000    2109.1941    -647.3926    304658.83    15.249077 
15153500    2066.4971    -629.2043    305799.18     15.12516 
15154000    1898.9075   -639.62815    301357.38    15.252274 
15154500    2018.8882   -634.79864    302747.16    15.180919 
15155000    1946.1703   -690.75244    299832.99    15.486546 
15155500    2049.1148    -642.3465     306061.9    15.094986 
15156000    1911.4711   -690.24861    299433.31    15.463691 
15156500    1930.5286   -669.89067    299996.18    15.362922 
15157000    1848.3104   -629.06299     297423.5    15.146225 
15157500    1934.2747   -639.98644    294595.73    15.175973 
15158000     2032.458   -731.74917    295414.76    15.649786 
15158500    2012.5519   -632.95689    304423.98    15.034885 
15159000    2162.3864    -689.8241    302805.41     15.34423 
15159500    1913.4917   -651.72388    297725.65     15.05742 
15160000    2049.8183   -629.47908    301038.39      15.1394 
15160500     1853.279   -693.22244    297144.78    15.443645 
15161000    1999.0749   -718.88188    296385.37    15.540184 
15161500    2171.3354   -697.82989    303095.02    15.396689 
15162000     1827.144   -702.05463    297992.11    15.349683 
15162500    1930.1944   -681.34185       296662    15.283056 
15163000    1798.2766   -642.71197    294559.14    15.151268 
15163500    1897.5971   -677.49334    297316.76    15.442991 
15164000    2191.5131    -656.0508    304131.73     15.14341 
15164500    1931.5023   -750.13865    274660.25    15.925638 
15165000    2008.1156    -709.8207    296171.64    15.680381 
15165500    2081.3291     -717.211    300662.64    15.725247 
15166000     2263.365   -667.86072    297987.63    15.516515 
15166500    2079.8169   -595.18886    307645.23    14.804932 
15167000     1951.562   -651.16956    293319.79    14.935536 
15167500    1881.5798   -587.06024    293352.34    14.645621 
15168000    1982.0078   -690.35957    299377.12    15.446464 
15168500    1843.5638   -715.03599    294543.66    15.840958 
15169000    1929.3386   -608.89338    308321.27    15.006106 
15169500    1856.1168   -635.31308    301004.34    15.161491 
15170000    2106.6757   -655.83528    294862.96    15.313794 
15170500    2156.1988   -650.76247    300122.71    15.265687 
15171000    1952.1062   -645.83062    299512.56    15.297278 
15171500    2143.6013   -633.59379    303458.07    15.073092 
15172000    1854.4105   -634.29083    298872.03    15.081102 
15172500    1998.8232      -646.18    294410.19    15.090165 
15173000    1995.9411   -695.30012    294657.06    15.443646 
15173500    1976.4979   -691.02825    295572.97     15.42238 
15174000    2055.8121   -661.76756    298692.58    15.069388 
15174500    1942.5739   -653.56344    299045.71    15.049128 
15175000    2026.8228   -660.85862    303264.09    15.159196 
15175500    1771.7711   -641.17316    302401.56    15.008591 
15176000    1868.6888   -704.12002    273481.41    15.510766 
15176500    2056.5723   -673.79432    299136.85    15.155896 
15177000    1969.0336   -661.08435    302106.82    15.160951 
15177500    1865.4774   -735.99938    282804.51    15.662745 
15178000    1940.9094   -593.01092    295463.54     14.65964 
15178500    1994.3169   -582.72564    291074.16     14.46029 
15179000    1938.0283   -591.94181    291129.66    14.394264 
15179500    1979.6263   -621.58181    304954.49    14.470696 
15180000    2035.5693   -702.94329     302797.7    15.100111 
15180500    1977.6195   -749.66233    301154.21    15.598497 
15181000    2051.0465   -732.20168    293934.22    15.635547 
15181500    1851.5131   -640.05097    303940.58    15.034244 
15182000    2135.9597   -666.83075    295549.17    15.267621 
15182500    1953.8095   -665.55213    300787.69    15.206625 
15183000    2062.0982   -665.14957    300397.74    15.171601 
15183500    1984.8397   -707.33078    299599.59     15.37452 
15184000    1827.6212   -712.75479    302058.22    15.386945 
15184500    2114.2138    -717.3167    303669.47    15.386797 
15185000     1942.935   -694.14456     298489.8    15.293906 
15185500    1822.2215   -654.41997    299479.72    14.893544 
15186000    1990.4363   -599.72976    302750.88    14.528765 
15186500    2150.3881   -680.87576    303473.12    15.286629 
15187000     2225.013   -700.39647    305980.53    15.305319 
15187500    2141.1574   -649.62732    303465.79    15.061233 
15188000     2101.744   -728.51352     294684.1    15.794067 
15188500    2152.2799   -601.22437    302580.68    14.908489 
15189000    2018.1944    -628.0506    307825.08     15.05774 
15189500    1979.3288   -731.08841    297630.44    15.723762 
15190000    2136.3173   -744.37436    300089.57    15.664708 
15190500    2056.6866   -744.97575    297825.61    15.590338 
15191000    1851.8551   -728.96667    300627.14    15.385164 
15191500    2004.5195   -656.31943     296880.4    14.769305 
15192000    1943.7399   -643.09276     294385.2    14.821021 
15192500    2060.6553   -647.76788    297079.52    14.920123 
15193000      1992.71   -707.60278    290284.95    15.552631 
15193500    1951.2758   -693.04885    299794.92    15.274359 
15194000    1971.0317    -722.0185    294275.95    15.645655 
15194500    1982.8798   -667.31707    297897.35    15.143351 
15195000    2029.0398   -675.75504    307586.75    15.091251 
15195500    1833.4288   -684.61711    299459.47    15.086446 
15196000    1860.1129   -690.52727    304850.01    15.083098 
15196500    1992.4126   -718.70151    299535.35    15.378326 
15197000    2023.5599   -757.95105    292218.32    15.766296 
15197500    2025.4104   -688.61122    305834.44    14.988786 
15198000    2019.8992   -691.93735    305547.43    15.140899 
15198500    1939.1745   -695.94812    299657.17     15.18588 
15199000    2033.8292   -711.80309    296127.52    15.361482 
15199500    1975.0478    -746.0728    300504.41    15.759102 
15200000    2022.0717   -675.70738     304936.3    15.018707 
15200500    2215.7508   -702.78673    299900.51    15.159696 
15201000    2093.0785   -716.12149    293538.19    15.280348 
15201500    1967.7502   -613.65394    297170.53    14.730993 
15202000    2055.6205   -587.23412    289856.76    14.601436 
15202500    2110.2687   -631.88274    302405.15    14.863657 
15203000    1822.8209   -711.50913       297192    15.504186 
15203500    2138.8647   -723.16151    298975.48    15.574837 
15204000    2039.1674   -632.96406    304160.69    14.941508 
15204500    2058.4867   -724.22604    279154.05    15.578773 
15205000    1852.5699   -714.58081    295881.31    15.507824 
15205500     2035.664   -668.36901    296760.58    15.098272 
15206000    1989.4051   -661.36391    301423.12    15.058469 
15206500    1795.3426   -668.33885    294883.26    15.261471 
15207000    2071.1948   -635.04654    301293.48    14.808347 
15207500    1987.4617   -713.71292     280450.9    15.429499 
15208000    2112.0133   -636.30074    305665.74    14.888293 
15208500    1842.0619   -706.58906    296252.16    15.668905 
15209000    2066.2939   -705.79851    299385.89    15.556553 
15209500    1885.1802   -677.85809    297258.16    15.269303 
15210000    1972.7841   -651.03227     304376.3    14.993356 
15210500    1988.6021   -649.94871    303656.78     14.94964 
15211000    1948.9202   -588.36252    287278.73    14.551987 
15211500    2061.2372    -579.6773    292306.76    14.481332 
15212000     1901.326   -671.95381     298631.8      15.0985 
15212500    1849.3558   -709.97206    298188.63    15.304829 
15213000    1835.0572   -701.19378     296143.4    15.329971 
15213500    1945.5971   -699.14684     301247.7    15.405858 
15214000    1923.6065   -670.13385     299831.1     15.37198 
15214500    1935.4295   -658.09494    295213.69    15.269118 
15215000    2058.8568   -658.12474     296910.3    15.306149 
15215500    1949.5486   -642.58585    301828.59    15.138164 
15216000    2063.2814   -601.15836    301465.81     14.68949 
15216500     2024.901   -678.12717    303784.14     15.28299 
15217000    2072.4553   -724.14788    302225.92    15.521379 
15217500     1782.223   -721.17842    296779.49    15.677257 
15218000    1927.6577   -716.53761    298116.26     15.52383 
15218500    2000.1867   -649.04256    307965.96    14.987783 
15219000    1875.9396   -674.77654    293653.36    15.163214 
15219500    1821.0478   -634.69639    299849.99    14.833665 
15220000    1906.7183   -616.96541    305109.22    14.637621 
15220500    2116.7755   -652.15032    297884.59    14.912761 
15221000    1942.1489   -702.02868    304260.67    15.259623 
15221500    1827.9294   -747.39799    306292.73    15.583917 
15222000     1975.639   -739.58678    291869.54    15.646107 
15222500    2086.0282   -762.82939    291757.16    15.500014 
15223000    2193.6774   -713.51433    296293.35    15.101667 
15223500    2137.5999   -639.83327    303347.76    14.679319 
15224000    2057.6991   -662.12881    303767.12    14.778632 
15224500    1988.5573   -682.90781       299774    14.916286 
15225000    2045.9786   -739.48044    298525.26    15.294863 
15225500    1941.3069   -654.82498     295104.6    14.701111 
15226000    2055.7858   -696.18087    304050.06    14.940544 
15226500    2159.7512   -642.83317     314782.7    14.568752 
15227000    2042.2167   -669.29223    304575.69    14.670615 
15227500    2131.2632   -676.29523    301903.46    14.778596 
15228000    2041.9975   -652.04645    299021.38    14.587414 
15228500    2091.8285   -656.84662    307934.71    14.638607 
15229000     2175.614   -645.63733    308828.33    14.593093 
15229500    2037.2774   -715.25661    290109.65    15.016837 
15230000    2173.8145   -698.41851    307007.21    14.863258 
15230500    2025.1219   -687.73086    305136.15    14.870661 
15231000    1908.3654   -661.49993    301477.29    14.699094 
15231500    1856.8919   -678.94031    297961.52    14.829224 
15232000      1933.84   -703.11795    304790.96    14.920709 
15232500    2054.2267   -694.69037    303921.65    14.889412 
15233000    2075.5037    -688.7075    307717.56    14.855722 
15233500    2050.3575   -661.78983    288258.12    14.732891 
15234000    1934.7628   -647.04359     304515.3    14.621998 
15234500    2098.1609   -709.38939    295104.99     14.98637 
15235000    2171.8205   -702.78143    311960.51    14.891996 
15235500     2050.991    -706.8248     303828.9    14.975327 
15236000    1958.8553   -650.73838    305248.14    14.641224 
15236500    1859.1997   -738.52132    297071.58    15.247555 
15237000    2192.5535   -702.15502    304970.88    14.977684 
15237500    1955.1364   -723.01638    306629.44    15.107038 
15238000    1936.0073   -720.65675    299384.65     15.06644 
15238500    1802.9399   -729.22483     299372.7    15.287026 
15239000    1802.7966    -736.3491    293023.21    15.293095 
15239500    1961.6011   -729.44577    298595.89    15.244329 
15240000    1972.7568   -735.90883    301385.71    15.308231 
15240500    2117.6388   -736.50816    298892.04    15.329508 
15241000    1992.6033   -700.71948    308611.02    15.085716 
15241500    2099.9346   -684.29602    304259.15      14.8129 
15242000    1911.8655   -721.60013    298857.09    15.148085 
15242500     1951.745   -679.50995    303278.62    14.797469 
15243000    2034.0994   -718.24148    287380.79    15.136119 
15243500    1962.6347   -659.26979    296954.18    14.656248 
15244000    1944.9729   -694.07682    303964.41    14.683772 
15244500    1977.6825   -705.10219    304325.36    14.776204 
15245000    1946.1758   -685.20683    290285.22    14.726613 
15245500    2083.4046   -727.25908    304179.35    14.996373 
15246000    2009.2401    -657.6382    301764.78    14.586536 
15246500     2061.845   -665.63156    298159.73    14.639013 
15247000    1917.7739   -714.75654    278637.65    14.900939 
15247500    1928.9183   -683.05611    301865.31    14.649301 
15248000    1868.3223   -707.86823    311726.98    14.848739 
15248500    2188.5163   -714.87625    287432.91     14.99069 
15249000    2140.3256   -715.17917    286351.72    14.973088 
15249500    2046.4804   -677.65068    298538.17    14.789803 
15250000    1867.0585   -679.73801    303953.21    14.805943 
15250500     2028.364   -657.86468    285438.05      14.6917 
15251000    1977.8712   -654.89757    305757.69    14.698447 
15251500    1974.6116   -643.91254    307801.72    14.651556 
15252000     1933.516   -683.98286    299278.29    14.920108 
15252500     1878.883   -654.08985    306834.59    14.565818 
15253000    1866.9265   -722.79413    301682.18    14.964593 
15253500    1877.0588   -653.24754    305311.11    14.457068 
15254000    1921.3487   -735.62723    271313.32    15.021821 
15254500    2062.1763   -653.63395     299015.9    14.505082 
15255000    1983.0322   -661.30131    296047.02    14.677439 
15255500    1968.0817   -667.86036    296349.86    14.697703 
15256000    2059.1959   -649.85456    303443.55    14.598459 
15256500    1843.7129    -677.8265    304032.59    14.661718 
15257000    1992.2129   -728.99566    295804.22     14.96825 
15257500    1914.0487     -709.897    305173.67    14.850218 
15258000    2113.6594   -720.24122     302899.4    14.900149 
15258500    1884.6823   -712.48354    310993.08    14.857823 
15259000    1982.0648   -726.57307    299448.63    14.991371 
15259500    2137.4272   -710.98122     299727.2    14.829332 
15260000    1828.2004   -685.98991     299440.5    14.699078 
15260500    1960.0452   -689.28416    305182.88    14.743134 
15261000    2028.8292   -671.31959     308582.7    14.555167 
15261500    1888.4048   -692.48006    302784.89    14.769437 
15262000    1830.6802   -695.67379    285739.86    14.732822 
15262500    1885.0049   -694.48595    301069.67    14.661982 
15263000    1939.2806   -696.65508    294842.38    14.721707 
15263500    1993.4034   -731.62055    293686.66     14.93743 
15264000     2034.219   -712.52729    302938.44    14.829917 
15264500    2189.2213   -725.19205    281542.98    14.924051 
15265000    1966.3544   -725.09028    302766.69    14.910904 
15265500    2286.4664    -700.8288    290286.69    14.756225 
15266000    2140.8556   -628.82487    299823.44    14.439646 
15266500    2024.8885   -698.56505    288549.76    14.759892 
15267000    1981.3082   -719.57624    302489.82    14.892245 
15267500    2002.4321   -687.32398    289254.25    14.759218 
15268000    1947.1601    -656.3916    300428.51    14.605532 
15268500    1826.7058   -662.59071    295614.92    14.628994 
15269000    2092.0305   -639.79847    296561.52    14.442836 
15269500    1752.2045   -628.22356    298285.25     14.41265 
15270000    2016.7924   -654.47486    298418.26    14.472304 
15270500      1903.21   -709.77458     299897.3    14.804145 
15271000    1970.4467   -671.50868    303772.77    14.558563 
15271500    2031.7702    -686.9789    301671.31    14.665377 
15272000    1871.8134   -701.83943    292330.72    14.772595 
15272500     2067.237    -692.1451    297672.58    14.660597 
15273000    1895.1928   -726.04312    295137.07    14.959431 
15273500    2017.4342   -703.67233    299533.97    14.731295 
15274000    1980.9156   -673.35805    299565.57    14.617612 
15274500    1990.5233   -640.75418    292088.45    14.457586 
15275000    1980.9679    -622.8619    321950.71    14.359934 
15275500    1828.6831   -646.66577    302672.31    14.621367 
15276000    1971.5461   -627.19803     308932.4    14.371931 
15276500    2077.9176   -652.59001    308133.45    14.541393 
15277000    2018.3487   -719.86124    294774.07    15.067203 
15277500    2127.1027   -715.84291    304654.06    15.052341 
15278000     1945.218    -728.4276    291402.76    15.088709 
15278500    1996.6063   -628.16936     297189.4    14.391972 
15279000    1827.7348   -717.46668    298992.38    15.062176 
15279500    2121.2208   -723.02302    303102.11    15.182356 
15280000    1948.2843   -682.39438    296828.52    14.864877 
15280500     1955.266   -658.77136    296269.22    14.809854 
15281000      2128.93   -691.05331    301326.71    15.188242 
15281500    2195.1168   -662.18959    300403.62    14.957854 
15282000    1910.9622   -673.02076    294357.41    15.168276 
15282500    2096.1705   -577.42688    305152.13    14.400015 
15283000    2061.0713   -727.85169    298657.79    15.421035 
15283500    1873.8439   -746.93825    302743.94     15.70653 
15284000    1982.9575   -753.68118    293485.04    15.592192 
15284500    2100.6866   -749.95011    293480.46    15.630415 
15285000    2103.7198   -741.47008    309393.59    15.432905 
15285500    2052.3172   -721.40459    286246.91    15.251112 
15286000    2165.9516   -716.71512    303581.35    15.333514 
15286500      2084.84   -743.23673    269650.45    15.586608 
15287000    1882.7584   -710.17963    300524.99    15.368871 
15287500    2107.7232   -671.00691    299750.85    14.820898 
15288000    2124.9372   -676.12658    296225.35    15.013654 
15288500    1939.3365   -657.94437    299573.39    14.996329 
15289000    2073.9772   -693.82449    301868.37    15.335858 
15289500     2084.806   -637.81027    310913.32    14.974032 
15290000    2001.0812   -650.51049    303946.78    15.055736 
15290500    2028.4385   -669.04206     301313.2    15.126045 
15291000    1908.0095   -644.58187    303560.05    14.957856 
15291500    2011.6099   -695.32109    298507.46    15.355342 
15292000    1965.4281   -694.77734    279111.92     15.35362 
15292500    1935.3735   -709.35218    305697.77    15.247036 
15293000    1926.4998   -670.20594    294948.01    15.049809 
15293500    2056.0457   -649.72993    303767.88    14.832103 
15294000    2167.7258    -739.4355    275324.95    15.421741 
15294500    2070.2083   -605.57489    302601.25    14.522565 
15295000    2027.4137   -673.04591    297291.52    14.898153 
15295500    2049.3581   -712.48085    299187.57      15.1253 
15296000    2291.4362   -725.77587    295246.28    15.142953 
15296500    2047.2386   -718.23196    306231.31     14.97643 
15297000     1757.591   -666.79297    294812.08    14.602901 
15297500     2163.831   -633.17653    299886.28    14.473022 
15298000    2095.0557   -633.31157    299619.08    14.484593 
15298500       2048.2   -634.13452     300409.1    14.357479 
15299000    1973.3236   -727.29399    287759.59    15.124485 
15299500    2109.2827   -731.75052    304553.72    15.231869 
15300000    2007.7075   -753.23027    302379.53    15.480373 
15300500    1999.9033   -717.70684    307366.07    15.097527 
15301000    2146.1399   -760.62452     311891.6    15.563145 
15301500    2048.0273   -739.52719    297345.04    15.364012 
15302000    1910.5018   -738.73488    302783.06    15.407275 
15302500    2024.3378   -720.75755    306522.65    15.170681 
15303000    1775.3669   -717.57622    298730.47    15.143813 
15303500    2125.5304   -731.35869    300829.48    15.284646 
15304000     1881.431   -753.09157    305419.05    15.502965 
15304500     2053.803   -679.17768    303936.44    14.941539 
15305000    1929.0195   -593.57255    290602.12    14.499616 
15305500    2056.2208   -581.43058    312825.37    14.462176 
15306000    2132.2156   -586.79917    298176.88    14.515451 
15306500    2080.8757   -578.35903     296189.8    14.462017 
15307000    1914.1432   -632.42001    299368.24    14.752651 
15307500    1961.0799   -655.02253    300204.75     14.90605 
15308000    2049.0403   -738.43879    296143.36    15.624182 
15308500    1991.4523   -719.81188    303798.88    15.416662 
15309000    1925.9053   -566.29122     328982.8    14.484224 
15309500    1903.7597   -646.05283    295739.37    14.968093 
15310000    2157.7415   -712.91044    301601.27    15.400356 
15310500    1926.3312    -737.4619    300478.35     15.59902 
15311000    2124.8792   -734.34245    304300.01    15.566414 
15311500    2099.7714   -734.81024    296367.97    15.621837 
15312000    1921.8773   -591.05624    299893.85    14.573048 
15312500    1933.5275   -648.37456     298554.3    14.947157 
15313000    1964.4379    -609.2999    305262.79    14.705888 
15313500    1927.5493   -671.21417    302046.06    15.173325 
15314000      2051.55   -719.54064    298960.63    15.772256 
15314500    2022.3454   -629.41197    298764.73    15.072241 
15315000     2145.283    -702.5331    302181.89    15.393741 
15315500    1885.5337   -689.91726    299318.95    15.356544 
15316000    2107.0862   -631.70011    299827.43     14.87429 
15316500    1974.9286   -636.30968    303495.32    15.011884 
15317000    2163.2756   -705.10654    300947.54    15.328426 
15317500    2094.7487    -705.5551    300966.63    15.261835 
15318000    2012.7222   -678.88658    297537.05     15.08605 
15318500    1991.1632   -750.70299    305255.35     15.74678 
15319000    1856.4522   -747.22171    295286.49    15.848682 
15319500    1911.7767    -716.3336    297015.66    15.685641 
15320000      2085.64   -655.31247     300657.7    15.119146 
15320500    1945.9758   -578.17338    303741.02    14.691451 
15321000    1901.1417   -709.81005    295082.48    15.738213 
15321500    2039.2112   -740.13676    300327.66    15.808521 
15322000    1864.4235   -739.92452    298504.48    15.914358 
15322500    1994.8869   -727.54828    300954.59    15.633748 
15323000    1832.3277   -717.68056    297615.37    15.425817 
15323500    1918.7478   -622.21594    302408.26    14.743488 
15324000    1972.0178   -662.88356    299180.68    14.916672 
15324500    1885.1564   -750.48112    303571.19    15.671697 
15325000    2135.6012   -716.79763    298449.14     15.30183 
15325500    2094.9072   -618.70817    298368.73    14.729712 
15326000    1987.1806   -618.83802    303263.36     14.85144 
15326500    1940.7018   -576.71254    305347.86    14.573093 
15327000    1912.6887    -584.6772    300782.38    14.715085 
15327500    2158.2051   -613.20536    310231.57    14.685613 
15328000    2048.2981   -652.83076    299993.26    14.976176 
15328500    2071.2106   -714.42731    298525.21    15.513611 
15329000    2060.9374   -638.30528    306791.57    14.926965 
15329500    1948.6933   -671.44604    299059.15    15.214283 
15330000    1814.5917   -660.48638    299298.45      14.9963 
15330500    2061.9104   -642.94474    308392.06    14.675111 
15331000    2073.9931   -653.76831    309844.83    14.634479 
15331500    1931.9277   -640.73146    302116.38    14.675837 
15332000    1896.0372   -665.88107     299927.4    14.907883 
15332500    2080.2131   -575.87755    294850.41    14.246928 
15333000    1974.6159   -628.88146    295050.91    14.528797 
15333500    1906.5331   -634.23473    306990.83    14.740141 
15334000    1967.6003    -651.0016    301990.35     14.75791 
15334500    1971.2491   -655.72575    297893.31    14.703484 
15335000    2106.8309   -669.18729    293655.13    14.836011 
15335500    1848.2637   -627.41835    299379.51    14.612102 
15336000    2214.2892    -659.0267       305654    14.662028 
15336500    1939.1406   -636.92885    302070.61    14.555993 
15337000    1959.9732   -713.49436    298877.27    15.049272 
15337500    2009.8812   -740.15349    299757.35    15.350092 
15338000    1978.8025   -724.27504    303364.31    15.211706 
15338500    1941.0966   -733.32873    281090.99    15.319245 
15339000    1889.4745   -717.87945    299225.04    15.395501 
15339500    2048.4828   -750.65567    303519.57    15.352653 
15340000    2009.7415   -745.78763    309434.07    15.345067 
15340500    1882.6095    -684.3548    292328.68    14.800129 
15341000    2015.1847   -670.13954    298969.52    14.658154 
15341500     2159.384   -691.17512    289634.14     14.70265 
15342000     1962.668   -735.67434    292328.34    15.095155 
15342500    2023.1865   -712.18431    306464.57    14.941137 
15343000    1839.3463    -742.4488    304527.67    15.379996 
15343500    1902.0537   -744.77676    311051.04    15.330461 
15344000    1786.9787   -712.27481     309517.8     15.03393 
15344500    2027.2711   -740.39309    302332.12    15.284568 
15345000    1965.0269     -746.369    302140.93    15.349248 
15345500    1930.0942   -751.13746    296838.14    15.382156 
15346000    1869.7391   -759.19457    306961.95    15.561174 
15346500    1887.3039   -734.57365    300213.25    15.319988 
15347000    1948.3459   -759.61502     289495.7    15.576037 
15347500    1904.5345   -709.65522    297113.86    15.123485 
15348000    2029.9334   -672.50467    295257.04    14.974923 
15348500    1762.6254   -630.37361    303822.14    14.710145 
15349000    2215.4953   -663.65723    301992.48    14.708529 
15349500    1929.2651   -659.68536    295836.66    14.805166 
15350000    2186.2979   -662.34805    298059.47    14.781101 
15350500    2016.0187    -653.3367     299579.4    14.753979 
15351000    2016.2577   -679.86552    300412.31    14.936609 
15351500    1968.5495   -718.30116    300900.47    15.047254 
15352000    1881.2025   -673.70373     295671.7    14.969932 
15352500    1886.9738   -675.86038    298558.54    15.002788 
15353000    2065.2895   -668.17773    296224.58    14.827389 
15353500    2003.2675   -699.73617    305362.73    15.114976 
15354000    2184.3312   -755.90482    308531.47    15.419489 
15354500    1976.1734   -745.38779    302282.66    15.321852 
15355000    1966.0256   -718.55291    304983.09    15.151529 
15355500    2119.4711   -715.25883    300277.65    15.058761 
15356000    2107.4568   -693.26041    300727.53    14.843557 
15356500    1811.1261   -617.76328    295466.34    14.448057 
15357000    2006.9866   -623.94969    316676.25    14.360789 
15357500    1928.8252   -673.55737    304918.16    14.556069 
15358000    1924.6159   -678.54373    299950.23    14.682032 
15358500    1985.8145   -677.24861    309575.49    14.607614 
15359000    1953.6089   -689.67631    288179.86     14.69392 
15359500    1857.6645    -725.8534    293892.71    15.006908 
15360000    1827.6811   -707.08605    300719.57    14.885712 
15360500    2075.0472   -763.21705    291129.79    15.408787 
15361000    2038.1879     -752.951    292077.42    15.423869 
15361500    2085.4822   -647.93593    306640.83    14.639588 
15362000    1857.5888   -599.42094     303280.8    14.367022 
15362500    2015.7907    -629.7636       291831    14.470658 
15363000    1967.5936   -626.72659    292260.93    14.434978 
15363500    2001.9941   -664.24798    297041.18    14.853228 
15364000    1931.8835   -715.22335    300480.77    15.362695 
15364500    2041.6355   -656.40989    301291.92    14.721206 
15365000    1927.0669   -657.47501    301588.28    14.850001 
15365500    2094.4403   -651.05095    306233.49    14.641966 
15366000    1895.9846   -634.99209    294985.89      14.4851 
15366500    1948.2491   -640.52351    299519.68    14.651639 
15367000    2033.7543   -704.33128    305436.63    14.935998 
15367500     1900.328   -681.14489    298896.68     14.76682 
15368000    2076.3389   -706.23363    293435.94    14.938549 
15368500    1978.2508   -730.18177    297829.71    15.162548 
15369000     1855.434   -740.65104    284668.06     15.15594 
15369500    2029.8253    -720.5905    294647.99    14.932394 
15370000    1965.0369   -724.71329    294494.49    14.921832 
15370500    1991.4512   -717.06089     307152.3     14.87548 
15371000    1885.2807   -715.70213    304346.07    14.808961 
15371500    1896.4848   -719.84842    300526.35    14.887877 
15372000    2003.9075   -717.81623    311404.48    14.893124 
15372500    1885.5705    -698.8409    296231.33    14.713414 
15373000    1871.9324   -602.81066    307707.79    14.332995 
15373500    2096.1507   -690.44398    297210.04    14.692414 
15374000    1987.4821   -728.38535    296236.38    14.922601 
15374500    2043.6928   -665.84797    307943.12    14.588639 
15375000    2115.0754   -692.89684    301846.79    14.708971 
15375500    1958.0365    -677.1642    297278.61    14.699849 
15376000    2093.5187   -700.51142    306052.58    14.783719 
15376500    2054.4722   -663.26948    302304.11    14.625604 
15377000    2034.8366   -630.97349    309281.45    14.607427 
15377500    1949.9681   -708.17575    299533.02    15.007898 
15378000    2090.4622   -714.43253    303190.92    15.107606 
15378500    2005.6336   -714.71802    300908.22    15.070362 
15379000    2044.0338   -764.73205    281543.95    15.552858 
15379500    2196.5864   -734.22571    300628.68    15.268207 
15380000    2146.2655   -674.84513    304393.88    15.001334 
15380500    2007.6034   -637.33379    300896.67    15.026692 
15381000    2097.3354   -706.34703    298957.39    15.472634 
15381500    2044.0742   -715.01044    303227.54    15.435392 
15382000    1988.9151   -617.03489    304322.39    14.833802 
15382500    1918.3965   -718.24302    299379.07    15.430536 
15383000    1912.1325   -683.55894    300403.23    15.241788 
15383500    2028.0864   -681.02642    300710.21    15.272145 
15384000     2037.076   -650.59393    303565.95    15.020577 
15384500    1943.2737   -663.74961    297104.23    15.040571 
15385000    2074.6139   -707.31125    293367.08    15.567191 
15385500    2027.4677   -631.85883    311683.53    14.991961 
15386000    2250.4922   -664.43487    304403.59    15.182374 
15386500    1991.3621   -657.38241    299171.78    15.109062 
15387000     1987.757    -713.4107    300919.06    15.561897 
15387500    1970.6387   -682.78189    295370.81    15.280745 
15388000    2004.1739   -735.01597    295287.92     15.64577 
15388500    1923.4733   -655.66816    299907.85    15.088836 
15389000    2013.0528   -675.85944    299332.89    15.243549 
15389500    2197.7413   -700.88077    300536.27     15.31599 
15390000    1989.6944   -714.06906    305414.62    15.387293 
15390500    2112.9141   -697.90147    307058.13    15.226487 
15391000    1974.4327   -589.50025    301175.92     14.59561 
15391500    1943.1808   -582.78381     302063.7     14.58581 
15392000    1929.8112   -676.88585    298603.82    15.218526 
15392500    2065.9327   -619.41744    302548.65    14.854964 
15393000    2005.5394   -633.39373    301693.58    14.848087 
15393500    1941.6813   -682.11035    295633.81    15.301835 
15394000    1988.6554   -680.86193    295990.58    15.137834 
15394500    2176.8501   -666.27636    293712.56      14.9465 
15395000    1928.3085   -657.81371    296646.15    15.040041 
15395500    1922.2412   -683.71687    297427.67    15.159126 
15396000    2033.1988   -668.72944    288448.01    15.184735 
15396500    1979.7883   -676.89604    294637.64    15.127101 
15397000    1911.0619   -678.05497    292174.51    15.370312 
15397500    1953.8824   -695.16977    296961.83    15.305172 
15398000    2251.8963   -726.15401    290179.34    15.528048 
15398500    1901.8345   -571.10593    321165.51      14.4889 
15399000    2003.0807   -582.99895    301720.43    14.491657 
15399500       1757.1   -580.02678     297618.1    14.469308 
15400000    2069.9031   -583.56582    303866.17    14.343573 
15400500    1881.1009   -582.82384    299161.76    14.353072 
15401000    2072.4015   -581.86337    295587.25    14.420178 
15401500    1900.0645   -587.83689    286156.52    14.528821 
15402000     1963.498   -594.74574    288476.06    14.546044 
15402500    2032.5401   -591.98935    293533.54    14.607821 
15403000    1840.4746   -577.83577     304278.1    14.497819 
15403500     2064.702   -655.92324    301188.04    14.922028 
15404000    2014.1425   -611.96812    302091.38    14.646507 
15404500    2070.1697   -655.32618    297448.81    14.772737 
15405000    1956.0835   -585.28486     288635.8    14.331243 
15405500    2018.2409   -669.14804    302261.69    14.653888 
15406000    1940.1562   -654.63104    306184.49    14.664751 
15406500    2092.7311   -651.30098    306889.29     14.64874 
15407000    1973.5202     -735.347    288838.96     15.34865 
15407500    1975.9478   -717.30243    300190.39     14.95828 
15408000    1918.6656   -684.85277    303473.87    14.643048 
15408500    1978.3095   -701.66017    305120.27    14.832319 
15409000    2088.0935   -723.66343    303793.05    14.917178 
15409500    2128.2692   -629.75157    309839.33    14.364743 
15410000    1932.7971   -734.24703    297603.63    15.085548 
15410500    2167.4483     -715.411    307043.03     14.86257 
15411000    1919.5595   -643.86667    303586.56    14.459504 
15411500    2136.1316   -726.62249    305499.58    14.930623 
15412000    2086.5979   -706.10619    299596.25    14.853328 
15412500     2019.467   -728.27651    302927.07    15.009962 
15413000    1927.9642   -713.00016    303753.87    14.835209 
15413500    2030.7004   -724.97871    305007.58    14.912176 
15414000    2433.4694   -720.13028    298571.91    14.972684 
15414500    2097.4056    -619.9813    301139.75    14.412266 
15415000    1885.0269   -622.70835    296395.34    14.486736 
15415500    1706.7572   -670.20796    297282.44    14.753013 
15416000    1974.2862   -749.59525    300053.26    15.301584 
15416500    1986.2929   -739.41113    308931.04    15.296915 
15417000    2005.7232   -730.72193    288610.13    15.091084 
15417500    2077.8988   -722.57413    303271.25    15.004281 
15418000    2028.0439   -749.93404    306449.89    15.375715 
15418500    1991.3718   -743.87174    303249.76    15.324622 
15419000    2066.8887   -723.50753    302561.77    15.118934 
15419500    1966.0892   -720.75665    307933.13    14.863558 
15420000    1954.0616   -723.64909    303093.22    14.914532 
15420500    1920.1609   -762.42413    297412.56    15.382188 
15421000    1908.2871   -754.46085    284015.49    15.383112 
15421500    2057.1803   -735.58456    289978.64    15.169826 
15422000    1979.1953   -583.69792    279145.42    14.234273 
15422500    1847.4051   -576.66017    299236.89    14.223828 
15423000    2010.9076   -583.86664     290514.8    14.197879 
15423500    1991.8769    -658.5865    301676.17    14.720992 
15424000    2118.7121   -654.80198    305668.04    14.656978 
15424500    1943.3795   -679.50441    299375.27    14.980268 
15425000    1800.1591   -711.95109     304043.6    15.453536 
15425500     2013.482   -591.55356    288511.81    14.501169 
15426000    2063.1916   -591.11006    300653.36    14.373841 
15426500    1979.9819   -611.12765    310720.57    14.406035 
15427000    2085.0221   -631.52319    293606.31    14.452181 
15427500    1827.4731   -588.39728     276720.9    14.271354 
15428000    2118.5988   -664.56426    297465.12    14.669891 
15428500    2104.7623   -592.25276    288703.91    14.459265 
15429000    1987.2918   -619.69555    297438.89    14.504889 
15429500    1956.0784   -624.62214    298358.21     14.51677 
15430000     2097.277   -730.89853    300859.05    15.331662 
15430500    2018.8196   -724.81078    300844.48    15.320299 
15431000    2118.9662   -719.58088    305355.13    15.341447 
15431500    2000.0345   -687.59444    297955.72    14.970333 
15432000    2025.0601   -664.57794    301664.28    14.705727 
15432500    1868.6431   -665.14518    294156.13    14.732619 
15433000    1891.7284   -645.55846    302288.55    14.546919 
15433500    2039.8291   -649.31099    290316.29    14.411106 
15434000    1794.0632    -626.0241    308108.88    14.403404 
15434500    1938.1381   -629.59106    301917.07    14.353068 
15435000    2190.3813   -643.97693    296773.02    14.434039 
15435500    1942.8653   -637.41022    290748.62     14.45727 
15436000    1938.5109   -611.63348    300590.47    14.471014 
15436500    1983.1709   -622.96043    295704.68    14.413605 
15437000    1955.2392   -612.85108    299561.67    14.526921 
15437500    2033.7639    -637.6301    299393.04     14.62819 
15438000     1893.054   -580.11752    298685.92    14.320206 
15438500    2073.1154   -726.08569    281185.93    15.294347 
15439000    1965.4765   -625.62091    302085.18     14.71969 
15439500    1848.1342   -633.49366    303129.37    14.658057 
15440000    2087.6137   -653.09931    303046.18     14.86493 
15440500    1985.6916   -703.97948    305975.76     15.34167 
15441000    1946.0354   -639.46615    306454.31    14.841725 
15441500    2077.5899   -716.62761     306161.2    15.416597 
15442000    1957.4981   -727.90798     308482.2    15.280973 
15442500    1953.1795   -706.86517    303385.67    15.228375 
15443000     1844.751   -727.23543    303782.56    15.328237 
15443500    2011.3854   -705.96733    311185.74    14.997522 
15444000    2024.8908   -718.61533    304399.29    15.002521 
15444500    2003.7075   -720.25053    306749.13    14.946046 
15445000     1862.272   -718.89821    304977.44    14.918258 
15445500    2110.9601   -714.75275    300593.21    14.828041 
15446000    2114.6122   -732.94171    293357.23    15.035505 
15446500     2086.688   -646.41406    290656.08      14.4191 
15447000     1927.572   -630.11393    295277.38    14.429535 
15447500    1855.8281   -636.61086    293350.18    14.423777 
15448000    1957.1139   -725.85273    289512.65    15.008753 
15448500    2022.6038   -622.82358    311629.35    14.353177 
15449000    1878.7089   -675.92023    294769.15    14.666957 
15449500    2082.7376   -660.35695    306357.46    14.676147 
15450000    2135.0399   -651.63571    305392.28    14.725394 
15450500      1919.69   -670.76986    301242.26    15.036273 
15451000     1937.764   -657.56205    300402.01    14.862461 
15451500    1793.3379   -672.51775    296192.79    15.027583 
15452000    2201.4718   -641.24386    296093.65    14.576475 
15452500    1887.5318   -588.53273    289527.65    14.377765 
15453000    1959.0585    -587.1352    294800.93    14.382934 
15453500    1861.0949   -592.17057    282585.11    14.450094 
15454000    1923.6342   -657.73471    297226.45    14.745059 
15454500    2039.4233   -634.60344    293387.81    14.492709 
15455000    1869.2471    -655.3954    301103.02    14.653309 
15455500     2107.262   -635.69661    302105.67    14.580664 
15456000    2061.1764   -679.12127    299880.93    15.114926 
15456500    2017.5482   -681.72948    300623.51    15.080798 
15457000     1899.408   -692.12686    299877.14    15.168051 
15457500     1945.621   -609.04642    295976.08    14.548357 
15458000    2143.0376   -656.30646    304340.53    14.764532 
15458500    2006.3474   -732.08486     296048.6    15.312029 
15459000    2048.9951   -716.21705    293529.29    15.292859 
15459500    2015.8579   -743.47231    308298.47    15.324597 
15460000    2103.9647    -717.7355    311900.05    14.962216 
15460500    1766.9197   -719.13797    300929.21    14.908856 
15461000     1904.756   -645.05727    293860.33    14.514923 
15461500    1881.3558   -631.71049    290608.98    14.447086 
15462000    2110.5602   -640.97166    316011.15    14.299707 
15462500    1823.0189   -636.37837    312576.52    14.315531 
15463000    1856.4666   -635.37592    301163.12    14.406708 
15463500    2018.9035   -638.12104    307384.77    14.329231 
15464000    1860.0236   -718.95798    308978.35    14.842253 
15464500     2010.717   -728.39431    291903.15    15.012176 
15465000    2105.6407   -647.00956    303775.12    14.547255 
15465500    1922.7339   -642.52779    298318.11     14.79532 
15466000    1916.8167   -694.10716    299687.42    15.199581 
15466500    2013.4752   -671.07065    299093.62    14.984886 
15467000    2035.7217   -729.57429    285119.33    15.302569 
15467500    1869.4516   -757.31601    315731.02    15.629106 
15468000    2266.5812   -762.32145     274865.7     15.68781 
15468500    2039.2523   -760.68313    286438.23    15.680713 
15469000     1879.045    -749.8305    302935.78    15.482692 
15469500    2072.1897   -735.15399     308621.5    15.193558 
15470000    2110.2344   -749.69742    296644.99    15.378673 
15470500    2138.0063   -662.63768    302088.11     14.69278 
15471000    2020.2531   -577.38551    309232.05      14.3476 
15471500    1904.5863   -592.87266     290642.9    14.417348 
15472000    1988.5711   -574.40891    307822.65     14.32564 
15472500    1885.5597   -655.47467    292311.98    14.771964 
15473000    2012.4948   -650.06652    303176.34    14.918811 
15473500    1911.8017   -692.39135    300982.13    15.162676 
15474000    1892.4088   -633.52084     304428.2    14.690058 
15474500    2065.6754     -652.059    300595.83    14.721939 
15475000    1971.7074   -695.37978    299760.67    15.173151 
15475500    1872.2742   -637.22596    306167.03    14.775284 
15476000    2084.6708   -650.76282    299391.36    14.647285 
15476500    2002.2959   -594.02479    298254.92    14.400733 
15477000    1808.7693   -583.89722    293261.81    14.498801 
15477500    2010.3753   -682.62686    296011.15    15.139752 
15478000    2061.4176   -662.23609    302713.24    14.966942 
15478500    2069.7799   -653.43545    304336.97    14.639102 
15479000    1932.0588    -651.4792    298714.04    14.780679 
15479500    1910.0404   -688.67343    302110.05    14.960989 
15480000    1904.6539   -698.02582    304511.09    15.109835 
15480500    2032.9308   -707.29119    288146.49    15.367294 
15481000    2134.4358   -632.39648    308482.61    14.694497 
15481500    2294.2679   -677.00793     302925.9    14.875916 
15482000    2035.0478   -734.04135    293515.19    15.505746 
15482500    2023.9476   -660.65158     303024.6    15.074554 
15483000    2002.7048   -669.73314    296958.98    15.202456 
15483500    1973.5825   -668.04387    296186.98    15.156946 
15484000    1968.5531   -686.09586    297779.96     15.24295 
15484500    2057.8181   -731.24277    303837.31    15.282898 
15485000     2013.145   -760.77005    303223.02    15.391983 
15485500    1973.5173   -749.61524    305579.17    15.252993 
15486000    2147.9566     -624.585    322674.61     14.39027 
15486500    1873.3916   -641.59928    296322.57    14.508888 
15487000    1977.6808    -609.3388    314912.99    14.372711 
15487500    1903.8799   -689.01064    301668.89    15.056367 
15488000    1806.9822   -692.87984    294270.86    15.226655 
15488500    2083.9232   -729.05833    300299.93    15.303918 
15489000    2058.1897   -717.12452    268171.14    15.391329 
15489500    2049.3148   -626.52784    301419.74    14.783476 
15490000     1905.613   -696.27932    305535.63    15.265642 
15490500     1993.458   -705.29964     303397.4    15.235418 
15491000      1839.29   -677.47967    299590.91    15.034654 
15491500     2011.444   -750.73362    304220.16     15.36957 
15492000    2028.2572   -745.20402     313335.8    15.342378 
15492500    2063.5957   -665.10972    296255.12    14.812186 
15493000    1962.6112   -637.30416    291167.81    14.470913 
15493500    1947.6877   -636.12422     311145.5    14.344139 
15494000    2011.0379   -679.14173     293407.6    14.676067 
15494500    1958.1422   -657.73931    301947.04    14.722298 
15495000    1943.3772    -658.9775    300720.07     14.73647 
15495500    2064.2435   -693.18981    296621.03    14.708196 
15496000    1851.4703   -660.03976    295199.58    14.723985 
15496500    1931.4769   -653.62045    301437.81    14.626909 
15497000    2062.0984    -580.1481    293079.72    14.215729 
15497500    1924.5121   -580.16272    279484.44    14.294984 
15498000    2138.6565   -586.52271     288020.4    14.325803 
15498500    2018.1338   -607.75492     302912.1    14.527268 
15499000    1874.2323   -663.53718    303014.63    15.143287 
15499500    2081.7896   -658.26453     303267.9    15.126849 
15500000    1976.5571   -646.72491    304631.12    14.987944 
15500500     2083.486    -667.3239    302262.32    15.124879 
15501000    2106.3893   -705.72792    299878.37    15.452799 
15501500    1927.6531   -631.98777    307955.74     15.00774 
15502000    1933.0984   -646.66891    296256.96    15.056905 
15502500    1925.9217   -653.34934    295412.32    15.154397 
15503000    1990.2861   -665.72971    298529.68    15.212087 
15503500    2058.2607    -697.9543     302837.7    15.330161 
15504000    2075.3088   -641.53142    304164.32    15.054227 
15504500    2065.9691   -707.78723    302126.14     15.38353 
15505000    1904.0439   -666.61347    299621.91    15.169705 
15505500    2052.4508   -686.71944    300994.29    15.354966 
15506000    2229.3802   -663.54773     305738.9    15.060016 
15506500    2178.8433   -712.60971    302439.91    15.426876 
15507000    2151.9313   -708.59293    288614.77    15.453757 
15507500    2102.4323   -654.94831    297854.64    14.971479 
15508000    2063.4763   -661.82982       303637    15.062265 
15508500    2048.0101   -663.33032    304552.15    15.008014 
15509000    2087.6995   -694.34195    302480.23    15.130366 
15509500      1976.85   -703.20295    299204.02     15.23853 
15510000    1853.1864   -719.87676    302580.41    15.385536 
15510500     1991.838   -674.69092    290371.82     15.13279 
15511000    2011.4614   -652.75572    302303.39    14.873111 
15511500    1969.2215   -649.40584    304564.06    14.836239 
15512000    2054.4403   -705.75978    305460.42    15.107055 
15512500    2008.1786    -669.9234     297226.1    14.826897 
15513000    1845.5361   -665.31788    290802.49    14.825497 
15513500    2018.0027   -660.28408    298773.86    14.751037 
15514000    1955.5274   -581.80698    300807.32    14.363498 
15514500    2028.1261   -581.83098    313965.85    14.358696 
15515000    1929.4403    -612.7737    298954.95    14.575887 
15515500    2214.1558   -726.07901    279984.46    15.412659 
15516000    2022.9476   -709.07851    307667.11     15.36825 
15516500    1966.0074   -683.44438    297564.68    15.149181 
15517000    1943.6963   -641.75374    297911.66    14.834919 
15517500    1995.1514   -652.28732    304083.72    14.897012 
15518000    1834.0654   -689.34352    300340.28    15.139985 
15518500    2104.6428   -714.53734    310410.44    15.328167 
15519000    1885.8974   -717.23699    305316.82    15.401279 
15519500    2070.4116   -698.85876    307080.75    15.296698 
15520000    1963.0783    -654.6231    302368.06    14.894401 
15520500    2069.3204   -708.20663    299811.05    15.298607 
15521000    2018.3595   -680.89535    299795.26    15.071637 
15521500    2010.4147   -655.47925    297921.17    14.868351 
15522000    2105.7333   -648.53638    300156.11    14.689184 
15522500    2073.6177   -757.83435    307611.36    15.627081 
15523000    1937.9338   -762.47098    307594.02    15.554672 
15523500    1878.7901    -713.4336    302249.27    15.094847 
15524000    2081.0172   -708.92808    300548.52    15.017811 
15524500    1955.3408   -633.32437    322302.32    14.557858 
15525000    1910.5308   -711.88048    295225.74    14.993455 
15525500    1896.8798   -690.01329    301666.26    14.676185 
15526000    2224.7441   -718.65285    299834.52    14.949151 
15526500    1973.5122   -716.75512    293075.05    14.897561 
15527000    1828.7868   -626.38012    310258.79     14.35431 
15527500    2034.8735   -720.62076    304737.74    14.982121 
15528000    1988.2917   -639.91257    310535.04    14.543273 
15528500    2115.4042   -676.13076    305758.31    14.688248 
15529000    2081.4743   -699.08583    304493.16    14.885274 
15529500    2069.9087    -672.2043    300795.58      14.7093 
15530000    2035.7542   -734.39734    292921.57    15.063874 
15530500    2052.4433   -641.93717    308040.58    14.473008 
15531000    2008.4455    -722.4595    300411.82    14.901369 
15531500    2026.4512   -726.85571    291058.67    14.942159 
15532000    2102.7786   -715.33311    292951.39    14.900893 
15532500    2139.4949   -650.58462    292174.04    14.596466 
15533000    2018.0742   -649.13918    297013.65    14.659778 
15533500    1986.9113    -652.1374    292481.81    14.725554 
15534000    1992.0453   -608.78032    301747.76    14.580757 
15534500    1941.5282   -712.21135    294735.83    15.086132 
15535000    1912.4522   -737.77006    294834.61    15.344696 
15535500    1970.7806   -638.69674    306971.44    14.600801 
15536000    2141.4367   -628.19309    300553.79    14.671071 
15536500    2038.6905   -639.19883    298930.49    14.704542 
15537000    2079.6499   -614.21421    300009.25    14.492073 
15537500    1938.6294    -674.8677    298791.27    15.025715 
15538000    1998.4221   -657.40815    299513.61    14.890845 
15538500    1942.0685   -652.12375    299496.77    14.732753 
15539000     1923.997    -654.2461    290241.28    14.794089 
15539500     2018.995   -573.22381    300796.86    14.344577 
15540000     1818.974   -663.64859    297162.46    14.930974 
15540500    2176.5478   -624.18063    310860.19     14.66013 
15541000    2135.2945   -682.45792    305811.27    14.945334 
15541500    1972.3192   -741.42645    295648.98    15.319913 
15542000     2228.454   -675.01911    302824.08    14.769981 
15542500    2071.9089    -640.6461    301325.53    14.671318 
15543000    1927.7262   -608.91823    305635.11    14.732768 
15543500    1889.2332   -673.77962    294788.19    15.257812 
15544000    2218.4309   -696.96833    298792.15    15.404287 
15544500    2034.0178   -641.72389    303552.18    14.979653 
15545000    1931.2464   -699.35181    294747.01    15.417744 
15545500    1945.9514   -709.35863    299996.26    15.379876 
15546000    1804.0695   -743.30328    300518.14    15.643462 
15546500    1883.3211   -681.39221    306395.88    14.873666 
15547000    2013.5915    -678.7473    297409.97    14.902437 
15547500    2030.4809   -712.91116    301913.56    15.055375 
15548000    2091.8415   -675.12971    305178.44    14.731121 
15548500    1925.7464   -668.53526     278205.4    14.806196 
15549000    1848.4235   -700.30167    300217.15    14.933943 
15549500     2032.998   -697.64285    297331.31    14.913534 
15550000    1977.5202   -673.10153    300811.87    14.712305 
15550500    1865.6687   -638.18802    299002.71    14.478485 
15551000    2074.4902   -727.52108    299596.78    15.015225 
15551500    2049.8101   -689.79626     300898.4    14.855745 
15552000    1969.8567   -716.67466    300139.63    15.088005 
15552500    1945.3811   -695.89271    300056.62    14.960799 
15553000    2015.0497   -708.37268    301146.82    14.966685 
15553500    2160.3814   -680.23818     297743.9    14.726857 
15554000    2085.3971   -718.97091    293379.97    15.061717 
15554500    2117.2041   -657.33249    300397.29    14.629991 
15555000    2123.5828   -679.61759    299889.38    14.735767 
15555500    2030.1204   -655.72249    291094.65    14.599095 
15556000    1860.3159   -673.99212    281347.62     14.70717 
15556500    1956.8537   -668.20077     305876.7    14.625583 
15557000    2067.0795   -738.07143    300345.69    15.167659 
15557500    2193.4252   -735.90164    294015.25    15.278388 
15558000    2112.4328   -725.94315    299548.47    15.205951 
15558500    1914.7298   -741.27094    278656.06    15.335783 
15559000    2077.1817   -724.97153    299532.34    15.159154 
15559500    1970.3954   -694.22897    305970.03     14.99153 
15560000    1977.7467   -761.85583    296823.99      15.6272 
15560500    2042.2878   -759.44429    298657.18     15.62228 
15561000    1936.5693   -723.54242    306251.09    15.186422 
15561500    1945.4543   -665.08042    297992.93    14.809304 
15562000    2058.1302   -742.58827    297868.79    15.370355 
15562500    1977.9373   -650.35867    303736.06     14.64764 
15563000    1960.5075   -676.13967     294691.6    14.768071 
15563500    1948.7223   -668.30661    300133.65    14.725083 
15564000    1950.5348   -691.47322     299289.4     14.84239 
15564500    2043.4155   -692.09922    305195.37    14.899508 
15565000    1840.8688   -697.19424    289431.38    14.806461 
15565500     2166.304   -685.84086    308804.88    14.843884 
15566000    1914.2534   -695.19562    287256.67    14.882717 
15566500    1842.5537    -699.9153    300609.81    14.850056 
15567000     1962.546   -702.12794     302636.8     14.76731 
15567500    2078.2762   -658.90386    309510.17    14.525042 
15568000    1961.5475   -720.84361    304869.12    15.020134 
15568500    1866.5735   -611.83312    297330.35    14.356796 
15569000    1852.2717   -713.01104    302378.81    14.928074 
15569500    1826.4593   -677.98561    301768.03     14.75691 
15570000    1978.3438   -622.70741    295205.63    14.402882 
15570500    1763.2746   -675.65873    287296.96    14.698223 
15571000    1890.7475   -670.01287    308002.48    14.581241 
15571500    1911.8954   -707.76084    301833.21    14.848061 
15572000    1975.7772   -714.02907    301678.43    14.871445 
15572500    1865.4462   -672.16199    294112.59    14.646972 
15573000    1943.9556    -659.9113    297582.53    14.520785 
15573500    2056.0909    -642.9153     308054.1     14.44687 
15574000     1889.315   -640.45371    299741.96    14.438463 
15574500    2103.7117   -652.65961    310292.69    14.495705 
15575000    2007.3219   -709.11652    308497.75    14.872863 
15575500    2088.1612    -629.6119    316796.25    14.352148 
15576000    2194.8239   -686.70597    301572.66    14.697969 
15576500    2082.9365   -715.81119    299857.13     14.90469 
15577000    1969.3243   -691.25584    304083.32    14.740045 
15577500    1991.0612   -693.98265    298081.37    14.860184 
15578000    1969.1409   -689.20709     297069.1    14.865783 
15578500    2055.6545   -651.21117    306207.13    14.642084 
15579000    2102.4706   -709.90423    289560.84    14.993946 
15579500    1932.6584   -657.36686    306635.69    14.607269 
15580000    1991.2143   -694.11487    301252.39    14.831533 
15580500    1917.9692   -693.59583    302265.61    14.855154 
15581000    1940.0248   -702.96442    299078.94    14.882085 
15581500    2136.9185   -659.54757    306944.05    14.590914 
15582000    1960.6614   -657.35427    282576.93    14.629182 
15582500     1848.479   -703.60842    297280.14    14.797503 
15583000    1931.7636   -719.73869    296079.47    14.888909 
15583500    2109.4588   -700.39621    299446.29    14.734805 
15584000    2100.3185   -707.97856    303135.73    14.797084 
15584500     1941.328   -724.05945    298203.35    14.968121 
15585000    1849.4108   -652.45567    291740.64    14.451695 
15585500    2065.1369   -636.39072    298060.92    14.399223 
15586000    1922.9886   -649.25107    288987.43    14.403763 
15586500    1851.3975   -647.52439    292630.21    14.340848 
15587000    2240.2404   -639.85687    311573.46    14.313866 
15587500    1943.5053   -631.79079    311265.32    14.327037 
15588000     2030.562    -635.5232    296025.22    14.400646 
15588500    2111.6892   -651.04161    291081.61    14.401706 
15589000    1778.4929   -679.02957    296629.17    14.661365 
15589500    1937.9846   -638.84654    294770.17     14.44753 
15590000    1922.1881   -639.31857    307831.42    14.331451 
15590500    1701.8338   -635.49064    316627.02    14.340717 
15591000     2063.216   -638.24947    299448.21    14.375742 
15591500    1972.1093   -684.96702    297215.51    14.644312 
15592000    1923.8838    -692.2833    304913.16    14.600138 
15592500     1893.538   -665.04287    302107.82    14.675214 
15593000     2072.576   -670.25842    302127.69    14.599506 
15593500    1954.5999   -678.07399    303640.04    14.579081 
15594000    1898.4251   -692.05076    293840.43    14.623157 
15594500    1961.8035   -677.10741    305768.83    14.622238 
15595000    1992.3044   -695.39887    292535.36    14.714006 
15595500     1914.934   -645.14584     291192.4    14.380819 
15596000     1945.596   -642.00584    293845.58    14.509647 
15596500    1939.8748   -585.92606    314951.69    14.324575 
15597000    1968.1163   -641.15332    300378.29    14.588378 
15597500    1980.3553   -668.12556     300087.6    14.680948 
15598000     2050.562   -653.64755    301384.81    14.680742 
15598500    2107.9205   -672.70026    301217.07    14.686017 
15599000    1948.0364   -645.03764    304877.86    14.720985 
15599500    1967.2194   -696.98993     302063.9    15.209781 
15600000    1887.0136   -629.25872     298008.8    14.739325 
15600500    1883.2581   -628.12282    296111.54    14.583568 
15601000    1849.0672   -653.02401    295282.43    14.771016 
15601500      1875.18   -651.95685    300049.21    14.833327 
15602000    2153.9823   -631.22836    305826.91     14.68584 
15602500    2149.7308   -691.49989     305658.2    15.063786 
15603000    2083.4836   -695.89623     302536.3    15.366953 
15603500    1994.2765    -576.5772    300297.17    14.488903 
15604000     1908.394   -602.69465    287264.97    14.622063 
15604500    1928.5587   -577.57887    302544.39    14.603406 
15605000    2051.2371   -572.78254    314778.57    14.544595 
15605500    2167.8403   -612.49117    310460.86    14.697666 
15606000    2023.0036    -726.5545    291154.93    15.634574 
15606500    1937.2401   -741.91722    301476.41    15.636319 
15607000    2073.4113      -727.64    291463.36    15.472586 
15607500    2061.9049   -744.14926    309226.26    15.565714 
15608000    1905.8978   -746.82968    297983.73    15.563672 
15608500    2090.3624   -747.10743    300760.39    15.579843 
15609000    1889.9131   -720.48126    302550.05    15.341773 
15609500    2065.1173   -713.73335    297993.19    15.466921 
15610000     2046.515   -721.75552    306379.46    15.425012 
15610500    1884.9789    -734.1737    299989.84    15.437082 
15611000    1858.0626   -737.07908    289375.41    15.552455 
15611500    2141.0171   -640.13422    300546.06    14.853996 
15612000     1936.998   -586.48194    300495.49    14.552308 
15612500    1933.1187   -583.13292    306819.31    14.421986 
15613000    2138.2134   -583.36088    292114.24    14.461449 
15613500    2046.9061   -699.10297     303601.1     15.33243 
15614000    1979.7553   -673.36687    299895.93    15.176562 
15614500    2145.8763   -668.89931    299407.71    15.148604 
15615000    1911.1052   -651.85393    300250.01    15.023935 
15615500    1957.6927   -706.70589    286386.73    15.302586 
15616000     2050.692   -631.02224     294480.1    14.706613 
15616500    2081.4953   -733.76897    289222.75    15.343243 
15617000    2064.7472   -740.08555    295728.82     15.33505 
15617500    2203.6326   -742.20076    305743.04    15.262002 
15618000    2194.1447   -738.31645    306824.53    15.362365 
15618500    1881.6015   -749.11559    299149.74    15.379034 
[...]
29848000    2000.4753    -739.8676     294915.1    15.160816 
29848500    1703.3531   -727.72376    289832.81    15.103461 
29849000    2060.0415   -723.35661    306599.97    14.885667 
29849500     1793.618   -714.99194    308342.74    14.916386 
29850000    1953.0372   -684.29035    303178.42    14.613709 
29850500    2003.7649   -690.77999    291271.86    14.755553 
29851000     2072.275   -719.60761     305103.2    14.985491 
29851500    1960.9907   -715.65998    302214.85    14.951417 
29852000     1946.244   -713.73423    301017.99    15.055135 
29852500    1917.8584   -704.87336    299835.03    15.154278 
29853000    1849.8365   -619.40447    308371.57    14.688013 
29853500    1993.5021   -703.34635    306244.31     15.32241 
29854000    2065.5741    -678.4762     293991.2    15.162045 
29854500    2019.9862   -655.28345    299758.42    14.783994 
29855000    1912.7995   -674.27706    288566.91    14.853835 
29855500     1830.759   -657.46405     298960.4     14.77023 
29856000    2198.0042   -668.98092    297965.22    14.681878 
29856500     1955.987   -641.06934    301707.83    14.591886 
29857000    1917.0896   -586.07889    286689.03    14.430016 
29857500    1816.7613   -585.82628    293019.51    14.429021 
29858000    1901.6824   -704.71189    304104.89    15.027619 
29858500    1988.1039   -757.01298    310393.02    15.555455 
29859000    1903.8794   -736.08361    282905.68    15.308737 
29859500    2091.9035   -726.77804    302366.81    15.177775 
29860000    2210.9646   -751.00514    313535.15    15.503025 
29860500    2029.5478   -731.79165    300698.93    15.295478 
29861000    1640.8457   -591.00091    293999.63    14.382483 
29861500    1841.8561   -681.51728    297294.73    14.877856 
29862000    1863.5603   -690.57333    295583.14    14.951066 
29862500    1978.2002    -727.3925    302043.64    15.249605 
29863000    2094.2269   -740.29391    302255.69    15.424675 
29863500    2071.0453   -754.23321    303746.86     15.58555 
29864000    2012.0021   -694.69797    303074.19    14.991396 
29864500    1942.7143   -743.15374    295548.98    15.402573 
29865000    1968.5632   -661.77194    299603.84     14.76284 
29865500    1918.1396   -629.10833    301912.49    14.662762 
29866000    1877.3643   -701.88263    300460.23    15.032773 
29866500    2043.2971   -746.24948    301708.77    15.423659 
29867000    1886.3276   -684.56492    298102.95    14.987424 
29867500    1894.2009   -756.31427    296569.79    15.714135 
29868000    1803.4862   -693.56073    294774.54    15.236526 
29868500    1966.3838    -721.3468    300171.62    15.284686 
29869000    2074.6843   -667.28344    300224.95    14.946111 
29869500    1965.6075   -644.09003    299982.51    14.728884 
29870000    1976.7297   -636.71356    299020.04     14.62784 
29870500    1876.6883   -662.16334    294770.46    14.850361 
29871000     1899.412   -600.64037    300637.08    14.407331 
29871500    1731.2211   -588.82165    282557.51    14.422521 
29872000    1915.0974   -584.20843    305700.54    14.364921 
29872500    1991.6447   -698.58528    292096.44    14.866697 
29873000    1917.6627   -689.85005    300288.68    14.760524 
29873500    2236.9977   -720.59612    302331.11    14.928903 
29874000    2000.1054   -719.40472    308735.83    14.911191 
29874500    2159.4517    -731.6559    285889.44    14.994493 
29875000    2097.8965   -638.96126    305478.39    14.431567 
29875500    2101.2329   -703.90388    298719.66    14.813914 
29876000    2089.7712   -715.20436    307109.62    14.868588 
29876500    1828.7781    -709.1975    300571.74      14.9055 
29877000    1940.0403    -718.1334    300119.93    14.885292 
29877500    2064.3031   -671.28736    295927.12    14.629885 
29878000    1848.0685   -694.42767    298660.12    14.859196 
29878500    1941.9942   -714.26566    299161.76    15.044681 
29879000    2118.2065   -700.78531    300117.98    14.929601 
29879500    1913.7603   -716.07635    298381.27    15.028272 
29880000    1970.1218   -655.08544    296076.72    14.709661 
29880500    1940.9362   -650.62476    296905.44    14.656433 
29881000    2094.8678   -671.41554    302137.71    14.648328 
29881500    1998.5845   -654.82671     305547.7    14.661945 
29882000    1922.9324   -681.58492     292232.5    14.832517 
29882500    2074.3134   -679.69649    297061.42    14.805599 
29883000    1840.0865   -675.35122    280161.61    14.758052 
29883500    2082.1959   -697.03235    290043.14    14.838175 
29884000    2064.3152    -653.0967    309358.26    14.564576 
29884500    1799.8282   -651.64781    299934.02    14.586629 
29885000    1796.0555   -721.67403    293456.21    15.072238 
29885500    1961.6041   -656.80302    304271.49    14.662765 
29886000    1841.6397   -652.50495    287682.19     14.69883 
29886500    2060.3153   -652.81235    300647.51    14.713245 
29887000    2321.0157   -640.24851     309453.3     14.65306 
29887500    1900.9402   -656.71545    298748.07    15.111376 
29888000    1832.3766    -710.0715    297795.45    15.625006 
29888500    2027.1631   -704.39074    300844.39    15.606917 
29889000    2070.9399   -691.01869    302141.24    15.450158 
29889500    2097.1912   -608.22621    308141.37    14.925105 
29890000    1898.4388   -708.79033    294634.94    15.739786 
29890500    1967.2671   -610.98355     302829.7    15.057789 
29891000    1977.6886    -715.4189     299532.7    15.521179 
29891500    2097.0193    -708.2048    296947.29    15.670612 
29892000    1892.4037   -648.50468    295814.66    15.204902 
29892500    2039.4808   -653.62546    305011.07     15.18531 
29893000    2001.4084   -629.48722    298876.18    15.035646 
29893500    2036.1256   -669.93925    298611.76    15.430514 
29894000    2172.0057    -616.5537    306963.47    14.989522 
29894500    2112.5569   -641.87138    299328.48      15.3284 
29895000     1871.773   -646.15013    301498.29    15.231893 
29895500    1946.3211   -701.80751    299439.37    15.761159 
29896000    2100.9292     -697.868    299286.23    15.676652 
29896500    2228.5478   -687.46228    301825.72    15.549216 
29897000    1951.9039   -685.65821    297139.73    15.580449 
29897500     1930.142   -635.17365    298301.49    15.173398 
29898000    1875.2889   -646.07579     299609.7    15.213561 
29898500    1966.3408   -659.87734    302453.32    15.335872 
29899000    2238.4205   -722.32253    299915.49    15.933694 
29899500    2024.1878   -587.82941     303979.2    14.810892 
29900000    1913.8744   -637.35664    307944.22    15.095806 
29900500    2212.5396   -701.62079    305281.72     15.60843 
29901000    2029.7218     -661.382    286481.21    15.159552 
29901500    2160.2367   -604.10288       306101    14.891057 
29902000    1892.2061   -662.93988    297775.64    15.308778 
29902500    2018.3136   -635.82598     304296.9    15.178847 
29903000    2017.4077   -636.31609     302973.2     15.19025 
29903500    1933.8319   -683.34952    300846.75    15.509919 
29904000    2088.7502   -722.94003    305108.14    15.853287 
29904500     1923.505    -706.6088    299878.47    15.650639 
29905000    1935.8657   -605.00023    301501.15    14.907957 
29905500    1949.0453   -702.65611    300387.28    15.625686 
29906000    1882.6259   -691.28226    295223.14    15.635978 
29906500    1826.3387   -693.94666       296930    15.608676 
29907000    2158.9023    -706.0371    288324.24    15.764094 
29907500    1872.6753   -612.02991    301217.41    14.968582 
29908000    2001.1309   -641.94543    300629.86    15.227929 
29908500    1899.6386   -621.75079    303815.88    15.105805 
29909000    1975.7556   -711.19612     297167.2    15.771165 
29909500    2273.5397   -651.87241    295502.13    15.386534 
29910000    2148.3463   -660.59694    304655.99    15.301441 
29910500    1834.0809   -638.31015    296052.05    15.215297 
29911000    2065.9741   -573.30135    302404.32    14.561459 
29911500    2105.8912   -591.86028    299941.55    14.721101 
29912000    2012.8315   -632.70252    305040.42    14.936007 
29912500     1965.672   -713.84089    303128.88    15.792422 
29913000    2089.3265   -692.71435    297952.61    15.524953 
29913500    1984.2637   -697.47966    299575.52    15.603147 
29914000    1872.8085   -666.86756     298827.8     15.35784 
29914500    1939.8483    -573.7064    299238.56    14.572265 
29915000    2083.2763   -579.81693    303454.81    14.601598 
29915500    2058.5269   -598.74593    299990.32    14.569874 
29916000    1973.0579   -594.99216    298414.73    14.649625 
29916500    2060.7832   -606.44122    304430.73    14.540865 
29917000    1995.0975   -709.05356    298828.83    15.299388 
29917500    1982.0737   -688.97847    306323.79    15.212605 
29918000    1938.8129     -697.236    303595.78    15.102429 
29918500    2005.0267     -687.836    301729.57    15.129371 
29919000    1989.0092   -713.25679    304178.57    15.131061 
29919500     1964.251   -699.69318    294714.59    14.998373 
29920000    1982.5818   -670.16322     295471.2    14.699865 
29920500    1914.4061   -656.45895    292879.18    14.652935 
29921000    1848.8024   -654.99678     300876.8    14.744309 
29921500    2040.3598   -660.95099    304182.53    14.701694 
29922000    1964.9158   -724.46382    286446.52        15.07 
29922500    1979.3727    -680.6565    299259.23    14.871053 
29923000     1967.128   -697.03324    311028.56    14.883724 
29923500    1948.8911   -724.55213    304941.43    15.113167 
29924000    2066.1282   -719.38965    297424.66    15.124659 
29924500    1958.8362   -708.18107    303181.03    15.002515 
29925000    1839.4138   -725.77362    283471.37    15.082704 
29925500    2121.7496   -745.03454    293169.99    15.215953 
29926000    1869.7193   -747.90142    295874.39    15.374608 
29926500    2004.4139   -749.50132     303269.7    15.384037 
29927000    2014.2479   -702.37283    301075.73    14.950969 
29927500     1928.202   -741.43274    306540.59    15.266237 
29928000    2165.7067   -718.20838    306633.25    15.011095 
29928500    1930.0769   -664.21056    289444.65    14.657619 
29929000    1911.7844    -700.2449    300426.75    14.891302 
29929500    1996.2188   -748.91731    281074.02    15.374384 
29930000    2014.4297    -753.0874    296955.91     15.42038 
29930500     2003.557   -754.82049    299864.15    15.424677 
29931000    2051.9523   -718.11943    278438.33    15.045956 
29931500    1963.3121   -747.36316    308022.15    15.338493 
29932000     1803.456   -681.62493    295896.77    14.858407 
29932500    1968.6913   -677.15433    284450.26    14.853902 
29933000    1936.9778   -667.36771    302915.35    14.763266 
29933500    1733.8696   -653.10525     295626.1    14.624188 
29934000    2030.4655   -715.34816    292754.58    15.019971 
29934500    2127.5106   -741.88599    311820.16    15.273224 
29935000    1909.7433    -753.4869    296472.59     15.40197 
29935500    2009.9805   -753.19648    285386.97    15.375243 
29936000    1800.6787   -655.78682    304477.84    14.672724 
29936500    1977.2762   -679.61678    288725.93    14.774794 
29937000    1965.0389   -681.49635    303667.16    14.800845 
29937500    2008.5661   -695.15593    289170.58     14.84328 
29938000    2105.7566   -717.72921    298417.92    15.001832 
29938500    1938.0497     -714.369    306500.52     14.95719 
29939000     1884.241   -714.75523     294637.6    14.994473 
29939500    1982.1275   -712.34678    311823.51    14.917103 
29940000    2034.2381   -710.79503    312468.71    14.990494 
29940500    1810.0121   -687.89046    304883.51    14.781556 
29941000    2029.5821   -712.42904    313767.89    14.989276 
29941500    2058.8532    -726.2594    296656.98    15.160255 
29942000    1926.7728   -727.87569    299382.29    15.122708 
29942500    1958.4116   -711.00659    287602.78    14.948246 
29943000    2047.7435   -721.40848     294901.5    14.992733 
29943500    1974.2506    -717.1064    295194.78    15.029403 
29944000    2042.3133   -706.72085    303222.38    15.050484 
29944500    2103.4659   -731.26602    299347.76    15.281575 
29945000     1774.017   -707.82839    290112.99    15.102444 
29945500    2016.8921   -680.57549    311922.92    14.748925 
29946000    1964.0289   -675.88293    299539.68    14.719079 
29946500    1928.2643   -684.91018    290188.22    14.806368 
29947000    2117.5405   -676.65937    299240.48    14.828565 
29947500    2192.6106   -666.44978    268472.41    14.718531 
29948000    1956.2865   -668.07482    304094.66    14.718452 
29948500    1933.8463   -712.53707    306758.36    14.938142 
29949000     1876.764   -714.13929    298864.44    14.994588 
29949500    1867.1733   -725.74284    281368.59      15.1992 
29950000     2188.092   -672.26906    300988.68    14.738946 
29950500    2022.6172   -686.28896     301086.7    14.777216 
29951000    1891.5479   -755.08843     303719.1    15.382168 
29951500    2062.5113   -718.62518    303369.58    15.030648 
29952000    1938.1873   -703.87216    303827.33    15.009428 
29952500    2102.1246   -707.58696    305875.17    15.015385 
29953000    2291.5081   -655.31193    309312.49    14.725157 
29953500    2141.0167    -741.4753    298348.54    15.351859 
29954000    2285.8606   -751.31797     291247.1    15.424717 
29954500    2163.6129   -746.53359    303305.91    15.377427 
29955000    1902.9873   -654.72746    300175.36    14.632976 
29955500    1844.5491   -720.86662    294405.26    15.166956 
29956000    1944.3125    -640.5213    315072.37    14.587728 
29956500    1962.8727   -741.90516    309279.54    15.204848 
29957000    2069.0667   -704.56815    302067.81    15.008816 
29957500    2194.2591   -666.25868    274184.14    14.750646 
29958000    1866.9145   -659.43044    278625.11    14.678799 
29958500    1953.6572   -663.54794     285158.5    14.789426 
29959000     2078.003   -656.55839    300463.98    14.688779 
29959500     1948.871   -642.57153    295566.92    14.674835 
29960000    2024.1194   -585.90764    300254.14    14.502341 
29960500    1955.8034   -582.68188    306613.43    14.567132 
29961000    2023.5539   -663.83637    295539.06     15.04627 
29961500    2074.3429   -729.00557    300428.99    15.724071 
29962000    2100.6321   -659.19209    299763.47    15.021784 
29962500    1924.9981   -687.93864    299518.85    15.400186 
29963000    1984.2097   -651.04727    303330.28    15.143423 
29963500    1907.8973   -646.21424     306674.8    15.038295 
29964000    2007.6474   -708.21508    299103.41    15.401915 
29964500    1904.3363   -624.45476    305227.47    14.706969 
29965000    1991.6317   -643.10982    296657.03    14.765568 
29965500    2146.1928   -637.42742    302474.92    14.695286 
29966000    1955.9402   -639.32092    297028.72    14.714544 
29966500    2082.1829   -625.23474    304760.51    14.669179 
29967000    1923.1254   -728.24841    280402.08    15.433187 
29967500     2073.035   -669.69028    301330.22    14.813002 
29968000    2098.5009   -666.36737    299910.47    14.975522 
29968500    1855.6891   -646.74085     295856.3    14.825998 
29969000    1822.5687   -587.48474    291221.65    14.521112 
29969500    1952.4333   -573.31133    303361.68    14.456015 
29970000    1987.2738   -652.18664    299203.65    14.720232 
29970500    1927.9712   -665.52684    296132.74    14.767288 
29971000    1934.9829   -696.85093    303149.02    15.063147 
29971500    2086.0086   -703.50336    293743.93    15.316935 
29972000    1914.8647   -614.00478    302476.42    14.658558 
29972500    1895.0324   -687.44783    301349.25    15.087654 
29973000    1965.8608   -714.26919    305741.24    15.342598 
29973500    2070.4406   -714.32571    307600.04    15.292808 
29974000    2155.6009    -666.4225    294880.57    14.916194 
29974500    1917.4163   -685.37354    297546.05    15.101887 
29975000    1963.6397   -720.91443    307888.53    15.203666 
29975500    2031.0921   -757.37796    274874.33    15.436454 
29976000    1765.5645   -751.63791    300543.78    15.377711 
29976500     2126.863   -740.05512    290300.48    15.345436 
29977000    2117.1357   -706.07723    308838.13    14.999949 
29977500    2026.5605   -748.36058    310823.84    15.288692 
29978000    1994.1946   -753.24405    303692.47    15.360594 
29978500    2121.3569   -710.28422    303520.27    14.889346 
29979000    1956.2343   -747.17059    275195.56    15.437155 
29979500    1891.1727   -749.97021    313575.35    15.308105 
29980000    1847.0784   -738.83885    306753.49    15.342045 
29980500     1819.286   -732.13182    302300.71    15.322017 
29981000     2050.298    -725.0712    300289.41    15.177805 
29981500    2001.2586   -725.92921    303785.98     15.25309 
29982000    2026.9979   -703.19959    298666.84    14.970166 
29982500    2289.3139   -660.92556    321355.31    14.635255 
29983000    2001.6203   -687.71265     297749.1    14.947769 
29983500    1859.3884   -699.54719    292805.55    14.986794 
29984000    1983.0567   -715.33287    297242.06    15.107617 
29984500    2093.2049   -678.34144     291729.4    14.882591 
29985000    2088.6968    -721.5101    303792.83    15.288419 
29985500    1924.5324   -726.98888    303187.85    15.276951 
29986000    2029.6349   -706.15671       299202     15.16821 
29986500    2049.4432   -761.80395    293609.78    15.631213 
29987000    2067.0828   -759.91491    296401.78    15.639076 
29987500     1873.145    -735.0659    295607.06    15.451421 
29988000    2080.6453   -754.20039     311423.1    15.617554 
29988500    1919.2902    -695.4173    305831.67    14.892412 
29989000    2050.6198   -705.33901    300366.52    14.979574 
29989500    2204.6777    -714.4454    301512.33    15.125916 
29990000    1840.0993   -742.78746    291292.34    15.532251 
29990500    1743.3439   -643.10616    301124.56    14.894872 
29991000    1963.6941   -633.83591    305228.25    14.692124 
29991500    2227.7498   -620.29681    305436.06    14.697065 
29992000    2219.7512   -568.09692    343279.99    14.383998 
29992500    1989.2746   -636.71306    298836.18    14.665799 
29993000    1947.9677   -684.21296    297322.48    15.170512 
29993500     2135.006   -713.91267    290398.05    15.263458 
29994000     2046.562   -706.08356     293795.7    15.300564 
29994500    1953.8576   -718.03616    302339.45     15.39159 
29995000    1949.3149   -744.10134    300167.75    15.524944 
29995500    1918.9875   -754.73994    301077.72    15.660468 
29996000    1938.6131   -734.66688    300794.32    15.513833 
29996500    1955.3852   -735.88752    296557.32    15.712733 
29997000    1878.7991    -662.2405    300971.48    15.138489 
29997500    1826.3752   -652.81601    299156.63    14.929221 
29998000    1937.6599   -614.10467    300021.33    14.691629 
29998500    1935.6111   -640.65978    299488.94    14.858288 
29999000    1791.6718   -667.00568       297322     15.15774 
29999500    2233.8999   -649.29742    302085.09    15.166541 
30000000    2031.7373   -675.23897    298891.33     15.31974 
Loop time of 66469.5 on 6 procs for 15000500 steps with 250 atoms

Performance: 38.997 ns/day, 0.615 hours/ns, 225.675 timesteps/s
99.4% CPU use with 6 MPI tasks x no OpenMP threads

MPI task timing breakdown:
Section |  min time  |  avg time  |  max time  |%varavg| %total
---------------------------------------------------------------
Pair    | 3742.3     | 3859.9     | 3974.2     | 139.4 |  5.81
Neigh   | 106.86     | 107.66     | 108.6      |   5.6 |  0.16
Comm    | 882.54     | 998.57     | 1125.9     | 287.2 |  1.50
Output  | 341.79     | 341.81     | 341.9      |   0.2 |  0.51
Modify  | 61099      | 61109      | 61121      |   2.9 | 91.93
Other   |            | 52.89      |            |       |  0.08

Nlocal:    41.6667 ave 44 max 39 min
Histogram: 1 0 0 0 1 0 3 0 0 1
Nghost:    1120.5 ave 1129 max 1109 min
Histogram: 1 0 0 1 1 0 0 1 0 2
Neighs:    3411.83 ave 3633 max 3160 min
Histogram: 1 0 0 1 1 0 1 1 0 1

Total # of neighbors = 20471
Ave neighs/atom = 81.884
Neighbor list builds = 750712
Dangerous builds = 0

write_data	data.final
Total wall time: 18:27:55
