LAMMPS (8 Feb 2019)
Processor partition = 4
echo both

include		in.partitions
variable p_id world   0 1 2 3 4 5
include		in.temp
variable	temperature equal 2000.
variable	tempDamp equal 0.1 # approx 0.1 ps
include		in.pressure
variable	pressure equal 300000.
variable	pressureDamp equal 1.0
include 	in.seed
variable	seed world 74581 93734 128321 21934 495716 871038
units		metal
include		in.box
read_data	data.equil.${p_id}
read_data	data.equil.4
  orthogonal box = (0.0744726 0.0744726 0.0744726) to (14.9255 14.9255 14.9255)
  1 by 2 by 3 MPI processor grid
  reading atoms ...
  250 atoms
  reading velocities ...
  250 velocities

variable 	mass equal 26.981539
mass            1 ${mass}
mass            1 26.981539
include 	in.setup
variable	out_freq equal 500
variable	out_freq2 equal 500

neigh_modify    delay 10 every 1
include		in.al
### Argon Potential Parameters ###
pair_style 	eam/alloy
pair_coeff 	* * Al99.eam.alloy Al

timestep	0.002 # According to Frenkel and Smit is 0.001

thermo          ${out_freq}
thermo          500
thermo_style 	custom step temp pe press lx


restart 	${out_freq} Restart.lmp.${p_id} Restart2.lmp.${p_id}
restart 	500 Restart.lmp.${p_id} Restart2.lmp.${p_id}
restart 	500 Restart.lmp.4 Restart2.lmp.${p_id}
restart 	500 Restart.lmp.4 Restart2.lmp.4



# NPT

include		in.dump
dump            myDump all atom ${out_freq2} dump.al.${p_id}
dump            myDump all atom 500 dump.al.${p_id}
dump            myDump all atom 500 dump.al.4
dump            myDcdDump all dcd ${out_freq2} out.${p_id}.dcd
dump            myDcdDump all dcd 500 out.${p_id}.dcd
dump            myDcdDump all dcd 500 out.4.dcd
dump_modify	myDump append yes
dump_modify     myDcdDump append yes


timer 		timeout 23:50:00 every 1000
New timer settings: style=normal  mode=nosync  timeout=23:50:00

fix             1 all plumed plumedfile plumed.start.dat outfile plumed.out.${p_id}
fix             1 all plumed plumedfile plumed.start.dat outfile plumed.out.4
fix             2 all nph iso ${pressure} ${pressure} ${pressureDamp}
fix             2 all nph iso 300000 ${pressure} ${pressureDamp}
fix             2 all nph iso 300000 300000 ${pressureDamp}
fix             2 all nph iso 300000 300000 1
fix             3 all temp/csvr ${temperature} ${temperature} ${tempDamp} ${seed}
fix             3 all temp/csvr 2000 ${temperature} ${tempDamp} ${seed}
fix             3 all temp/csvr 2000 2000 ${tempDamp} ${seed}
fix             3 all temp/csvr 2000 2000 0.1 ${seed}
fix             3 all temp/csvr 2000 2000 0.1 495716
fix		4 all momentum 10000 linear 1 1 1 angular

run             15000000 upto # 30 ns
Neighbor list info ...
  update every 1 steps, delay 10 steps, check yes
  max neighbors/atom: 2000, page size: 100000
  master list distance cutoff = 8.28721
  ghost atom cutoff = 8.28721
  binsize = 4.1436, bins = 4 4 4
  1 neighbor lists, perpetual/occasional/extra = 1 0 0
  (1) pair eam/alloy, perpetual
      attributes: half, newton on
      pair build: half/bin/atomonly/newton
      stencil: half/bin/3d/newton
      bin: standard
Per MPI rank memory allocation (min/avg/max) = 4.003 | 4.005 | 4.007 Mbytes
Step Temp PotEng Press Lx 
       0    1839.0285    -698.0627     324059.3    14.851055 
     500    1946.4992   -706.07661    291204.46    14.973563 
    1000    1869.0464    -699.4655    305019.52    14.962673 
    1500    2093.8905   -703.96948    299803.71    15.026322 
    2000     2013.571   -706.52309    301362.99     15.04042 
    2500     1922.867   -698.05192    304378.43     15.04065 
    3000     2059.452   -712.62572    286452.22    15.131079 
    3500    2109.2456   -701.55228    304306.97    15.024795 
    4000    1929.5584   -701.71093    297328.39    15.059135 
    4500    2070.1447   -696.57998    303826.94     15.01574 
    5000      1911.32   -713.98214    300402.21     15.09991 
    5500    1882.7939   -683.31297    294509.25     14.85852 
    6000    2107.8987   -662.90706     343033.2    14.648421 
    6500     2064.262   -725.81431    301184.52    15.155051 
    7000    1998.0793   -690.96064    304638.79    15.020147 
    7500    2078.9438   -674.38504    302364.79    14.878261 
    8000    2094.1136   -690.23802    305214.79    14.945389 
    8500    1904.1889   -719.44234    315005.11    15.146678 
    9000    2087.9011   -722.34784    307470.01     15.16511 
    9500    1994.9912   -725.98587    293258.93    15.230773 
   10000    1877.0127   -733.62972    291751.39    15.244864 
   10500    2072.5898   -732.30299    304035.62     15.17575 
   11000    1805.5013   -721.06701    304543.36    15.191309 
   11500    2165.8935   -737.93833     272023.8    15.300749 
   12000    2094.2902   -733.37036    299328.33    15.201924 
   12500    1905.8669   -737.67728     272490.5    15.281407 
   13000     1716.342   -731.73339    303545.47    15.226773 
   13500    1952.4894   -736.89732    298866.14    15.204359 
   14000    2227.9626    -731.2773     292423.4    15.272783 
   14500    1955.2808    -728.4442    297287.67    15.282398 
   15000    2063.5437   -661.62684    315443.36    14.920943 
   15500    2052.5758   -656.02632    303350.95    14.833715 
   16000    1762.4031   -651.64591    321060.02    14.683202 
   16500    2115.8675    -665.1436    294307.35    14.819495 
   17000    2053.1962   -665.89544    283590.78     14.78638 
   17500    1873.3212   -653.29068    299962.21    14.701116 
   18000    1851.7634   -655.36094    306958.66     14.73778 
   18500    1979.8612   -659.99706     296350.7     14.76394 
   19000    2266.8181   -653.88148    314416.52    14.725424 
   19500    2043.8672   -657.38944    305602.84    14.894801 
   20000    2127.2538   -674.20591    288847.24    15.036028 
   20500    2090.1881   -660.99452    296836.36    14.971613 
   21000    2125.4191   -653.97841    302115.05    14.959986 
   21500    2064.5014   -661.54584    298211.45    14.987845 
   22000    2008.1243   -651.59868    299499.13    14.973707 
   22500    2006.6371   -658.59622    287902.91    15.056273 
   23000    1982.1185   -654.86938    302951.45    14.951866 
   23500    1796.6673   -656.02439    287739.89    15.007256 
   24000     1808.737   -657.84849    283859.88    15.071948 
   24500    1696.6261   -648.67905    294364.59    14.983963 
   25000    1928.7392   -665.51493    284823.92    14.973092 
   25500    1907.8742   -662.51457    286293.72    15.074977 
   26000    1930.9506   -651.37634    299293.62     14.97345 
   26500    2101.9875    -660.5465    292062.55    14.956962 
   27000    2113.9487   -657.40955    303632.84    14.957237 
   27500    1990.3747   -654.77763    307122.82    14.893752 
   28000    1923.1184   -671.50179    299480.86    14.916558 
   28500    1985.5071   -643.59555    328367.87    14.813747 
   29000    2205.8884   -725.97734    304197.42    15.375436 
   29500    2008.9887   -726.59536    286356.51    15.449529 
   30000    1951.9968   -728.24565    306463.89    15.394767 
   30500    1838.5462   -728.48785    285995.19    15.453434 
   31000    1953.9469   -721.83983    312286.06    15.397489 
   31500    1962.7981   -725.58422     296684.8    15.439682 
   32000    1843.8641   -719.55058    302614.05    15.426337 
   32500     1956.744   -718.80755    303940.89    15.439768 
   33000    1855.3383   -722.90621    302972.93    15.415705 
   33500    1736.8139   -720.71536    289852.47    15.439115 
   34000    2005.6483   -715.45071    305309.66    15.390283 
   34500    2103.2524   -723.47619    299136.29    15.404951 
   35000    1896.1684   -718.85838    306149.48    15.363152 
   35500    2176.7884   -702.54058    310851.17    15.301934 
   36000    2196.1246   -716.84203    310546.47    15.369837 
   36500    2073.5342    -716.7406    307678.51    15.389511 
   37000    1916.4028   -714.48251       303066    15.415871 
   37500     2099.542   -719.36633    291624.25    15.487308 
   38000    1916.4498   -725.51217    286971.71    15.490742 
   38500    1854.0467   -725.18857    288394.09     15.45237 
   39000    1935.7732   -719.25191    292190.01    15.437097 
   39500    2085.0024   -716.10815    301720.72    15.402815 
   40000    1927.2064   -724.91786    306610.48    15.386821 
   40500    1864.2183   -714.63506    302011.93    15.294328 
   41000    1914.5502   -721.40107    309457.48    15.281414 
   41500    1912.1097   -724.00104     293339.7    15.403256 
   42000    2086.5704   -719.65462    285873.84    15.372287 
   42500    1971.1902   -734.50218    294523.78    15.424134 
   43000    2149.9367   -701.58266    309038.62    15.101618 
   43500    2030.7721   -649.12792    294185.07    14.832407 
   44000    2067.4454   -648.40161    282096.72    14.680124 
   44500    2100.3503   -636.75745    308961.72    14.539518 
   45000    2156.0461   -645.27499    296585.96    14.543764 
   45500    2059.0985   -641.61956    304710.04    14.540472 
   46000      1980.83   -644.89997    299047.79    14.537793 
   46500    1941.3527   -653.39153    282266.02    14.569187 
   47000    2077.7297   -642.60919    291365.66    14.596955 
   47500     1980.936    -649.2682    312739.02    14.492499 
   48000    2026.0437   -659.13693    291957.45    14.544994 
   48500    2017.1224   -641.75755    309493.16    14.514355 
   49000    2107.5028   -640.70681    298108.85    14.650001 
   49500    1938.3655   -642.08098    288149.71    14.750646 
   50000    2021.5321   -665.56825    307036.65    14.952197 
   50500    2160.7137   -664.38982     294544.3    14.972829 
   51000    2078.5789   -648.09056    298371.71    14.783963 
   51500     1939.858   -717.89288    307247.45    15.294663 
   52000    1920.5362   -687.76022    303778.13    15.109675 
   52500    1973.0231   -679.95666    302612.69    15.100866 
   53000    1883.6126   -720.18255    293487.79    15.357318 
   53500    1656.5875   -721.14579    297651.63    15.351294 
   54000    2085.2474   -710.66278       302980    15.292354 
   54500    2271.7471   -658.35904    300161.75    14.860631 
   55000    1858.3417   -717.15046    293841.63    15.345392 
   55500    1877.1163   -682.37428    303416.59    14.979064 
   56000    1913.0716    -711.6434    301497.57    15.144511 
   56500    2113.9324   -739.04071    292010.96    15.400652 
   57000    1888.5461   -720.56018    297271.94    15.196591 
   57500    2068.6734   -738.18821    299613.79    15.332905 
   58000    2053.7985   -713.09154    302627.05    14.953625 
   58500     1757.536   -727.03343    293333.73    15.014916 
   59000    1867.3224   -719.62217    301255.96    14.963459 
   59500    2192.7067   -724.24753    297982.02    15.021668 
   60000    2047.2124   -724.12997    299289.35    14.985255 
   60500    2084.3397   -715.50234    307592.68    14.925596 
   61000     2117.637   -728.18131    295022.66    15.017897 
   61500     2051.235   -737.29164     296633.1    15.184284 
   62000     1737.606    -739.2511    298119.91    15.341486 
   62500    2025.2088    -695.8528     297791.8    15.066103 
   63000    2105.3536   -707.87609    300475.29    15.188917 
   63500    2080.3785   -694.58807    300849.95    15.043551 
   64000    2050.3002   -697.38887    295492.71     15.10807 
   64500    1888.8224   -682.40243     303185.3    15.018854 
   65000    1989.5974   -684.94968    292909.52    15.099236 
   65500    1948.9685   -676.03922    296385.22     15.04423 
   66000    2019.9684   -642.35603    292835.08     14.81086 
   66500    2325.7692   -635.87078    299734.01    14.789309 
   67000    2146.7214    -643.3603    302804.73    14.801058 
   67500    2061.9487   -656.44287    302316.79    14.950814 
   68000    1888.0373   -725.05731    297890.79    15.370201 
   68500    1741.6762   -734.69954    309681.08    15.346118 
   69000    1989.6947   -694.22333    298622.34    14.999045 
   69500    2020.1484   -674.63456    302150.21    15.005804 
   70000    2006.9253   -694.06129     289250.7    15.089835 
   70500    1932.8128   -649.64174    295023.69    14.909202 
   71000    2145.2926   -626.99345    303149.16    14.786689 
   71500    1936.5633   -626.49616     302274.8     14.77115 
   72000    1857.8656   -630.09459    298283.73    14.801696 
   72500    2074.9719   -641.71715    297319.32    14.795387 
   73000    1939.7528   -671.10258    304805.57    14.963659 
   73500    2018.8957   -623.90677    317455.05    14.714881 
   74000    2094.8038   -628.60172     293942.9    14.791603 
   74500     2160.189   -634.33895    301203.07    14.728728 
   75000     2227.572   -701.24621    295394.64    15.140101 
   75500    1810.4757   -693.70236    291247.21    15.143494 
   76000    2049.7041   -635.60596    313914.52    14.672077 
   76500    1948.8307   -720.31387    308441.86    15.337464 
   77000    2088.2233   -734.77061    297415.33    15.499804 
   77500    1875.9351   -736.96964    299820.25    15.471272 
   78000    2142.3341   -726.44114    302162.78    15.491684 
   78500    1953.6917   -728.06977    302064.29    15.428667 
   79000    1922.2507   -727.81552    304411.07    15.431444 
   79500    2064.9412   -736.33467    286966.15    15.579314 
   80000    2074.1419   -653.37085    306450.81     14.91574 
   80500    2014.9084   -618.42414    308241.03    14.743256 
   81000    2042.0448   -610.56703    324019.09    14.708144 
   81500    2067.0074   -621.48405    297367.27    14.816779 
   82000    1865.9209   -617.67623    289008.08    14.844039 
   82500    1862.0006   -676.28028    287797.69     15.25876 
   83000    1972.5642   -658.62752    306653.57    15.098753 
   83500    1860.4729   -678.64717    293044.45    15.236584 
   84000    1952.0301   -676.90692    294315.71      15.2491 
   84500    2219.6828   -664.70086    313918.24    15.185773 
   85000    2017.1508   -672.41163    300190.43    15.231461 
   85500    2018.7852   -676.86118    303490.72    15.206024 
   86000    1948.2379   -673.53521    299522.49     15.21179 
   86500    2044.8107   -676.56586    302459.04    15.202278 
   87000    1979.2004   -678.18313    303316.54    15.157584 
   87500    2168.0004   -685.17111    307064.68    15.102404 
   88000    1978.0229    -681.8565    293734.89    15.207758 
   88500      1996.53   -673.84879    308075.06     15.12878 
   89000     1906.345   -692.71393    287567.95    15.219478 
   89500    2024.4647   -659.35739    306084.13     15.12964 
   90000    2026.6559   -687.36711    294529.73    15.191119 
   90500    2095.5209   -690.86587    295740.14    15.243031 
   91000     2054.944   -684.96548    296112.67    15.176455 
   91500    2101.9582   -733.36143    283624.48    15.599647 
   92000    1923.7597   -730.46498    304579.94     15.47683 
   92500    2046.4668   -726.13793    303875.79     15.45326 
   93000    2045.3938   -695.86429    291202.84     15.33513 
   93500    1770.8995   -619.59197    291650.24    14.784486 
   94000    1953.9742    -611.5972    310876.52    14.692158 
   94500     1918.366   -609.88233    310085.51    14.711297 
   95000    2122.5636   -625.54379    297359.77    14.695661 
   95500    1947.0765   -621.40766    284468.62    14.792218 
   96000     2035.509   -613.24573     299978.9    14.773428 
   96500    2051.2104    -618.2018    284240.21    14.793805 
   97000    2111.2272   -621.67836    293708.58    14.743573 
   97500    2081.4676   -603.38161     312766.4    14.762645 
   98000    2190.9796   -619.44307    286707.07    14.798543 
   98500     1917.291   -610.94189    299823.52    14.742509 
   99000    2107.9217   -610.02296    306934.34    14.695698 
   99500    1914.6951   -612.38229    301095.28    14.730011 
  100000    2092.5574   -614.42426    298598.96    14.788352 
  100500    2085.6651   -613.05479    301633.11    14.701735 
  101000    1818.5242   -613.23815    289939.85    14.803556 
  101500     1906.085   -610.32038    298594.18    14.717601 
  102000    1979.4831   -619.81253    289048.89    14.762229 
  102500    2081.4058   -619.16091    297737.43    14.745954 
  103000    2010.4803   -611.46258    308411.53    14.693973 
  103500     1939.965   -620.01916     290208.8    14.783651 
  104000    1845.6864   -613.54363    294634.17    14.777249 
  104500    1861.4435   -612.25883     302687.2    14.746183 
  105000    1952.0528   -609.52983    318152.18    14.677173 
  105500    2073.0913    -609.7495     312190.1    14.741925 
  106000     1879.778   -598.48602    327698.82    14.736532 
  106500    1997.3179   -631.41432    297642.09    14.793273 
  107000    2143.8244   -623.08745    292116.49    14.777331 
  107500    1944.5347   -616.26678    300439.25    14.752236 
  108000    2245.5209   -617.23214    309196.19    14.724395 
  108500    2034.0064   -623.07584    290269.38    14.844013 
  109000      1961.27   -607.87192    310676.18    14.739854 
  109500     1866.974   -602.98877    323129.14    14.630544 
  110000    1871.3365   -626.70348     287453.3     14.81321 
  110500     2000.513   -611.63112    292598.89    14.738611 
  111000    2111.7249   -607.81475    295463.69    14.762003 
  111500    2014.9811   -611.93117    293908.51    14.752799 
  112000    2119.0387   -620.72094    286649.94    14.774889 
  112500    1940.0962   -622.63865    294091.47     14.80783 
  113000    1929.7293   -616.16992    299607.51    14.676893 
  113500    2111.2741   -617.63869    297576.53    14.793568 
  114000    2013.4591   -620.40214    308683.87    14.686117 
  114500    2042.8815   -653.84419    305669.82    14.958864 
  115000    2195.1999    -734.9051    314964.37     15.49709 
  115500    2055.8314    -736.7444    305374.42    15.531976 
  116000    2006.4114   -733.45543     302945.7    15.540053 
  116500    2024.0535   -740.54746    297642.78    15.512693 
  117000     2116.231   -733.24617    304846.54    15.455277 
  117500    1929.9617   -741.85446     297675.5    15.550402 
  118000    1932.7151    -732.0144    307179.19    15.404706 
  118500    2058.4745   -665.85342    306525.91    14.937776 
  119000    1910.2042   -672.81822    299221.07    15.058942 
  119500    1907.1854   -682.62669    300428.94    15.180953 
  120000    2013.6257   -686.64899    300717.81    15.039263 
  120500    1903.4772   -678.83043    295023.72    15.020959 
  121000    1993.6256   -689.97467    294454.46    15.103069 
  121500    1959.1093   -690.52607    296946.78    15.088792 
  122000    2034.4972   -687.09732    295427.81    15.094991 
  122500    2062.1263   -668.48799    305039.34    15.077183 
  123000    1972.4121    -676.1023    300665.51    15.081077 
  123500    2177.6574   -672.05922    305514.71     15.03442 
  124000    2027.8728   -697.66366    293034.21    15.143969 
  124500     1981.584   -708.13216    287507.14    15.122365 
  125000     2061.972    -680.4423    302815.11    15.029134 
  125500    2223.8465   -691.27972    297118.79    14.987182 
  126000    1966.0047   -687.64416    298204.71    14.972799 
  126500     2054.608   -677.59654    306971.63     14.91384 
  127000    1916.2337   -689.21315    301256.19     14.89729 
  127500    2167.2369    -695.2383    295128.18    14.987347 
  128000    2030.2018   -676.13729    302994.32    15.012133 
  128500    1759.2407   -701.65857    288880.46    15.223264 
  129000    2024.4282   -683.65574    297573.07    15.147598 
  129500     1869.517    -681.5885    297775.03    15.033061 
  130000    1936.8003   -679.47223    301998.09    15.040793 
  130500    2071.0296   -682.28683    301914.82    15.100215 
  131000    1849.5336   -669.12564    307504.42    14.877514 
  131500    1767.7874   -626.82888    285949.35    14.706126 
  132000    2009.2487   -619.90964    303784.06    14.611716 
  132500    2104.6555   -622.19828    296782.11    14.672724 
  133000     2017.147   -740.59613    280222.63    15.462555 
  133500    1979.6069   -732.75515    287184.37    15.331832 
  134000    1952.6442    -742.6135     291755.1    15.458866 
  134500    2000.3992   -669.09328    309389.25    14.935903 
  135000    2119.9106   -694.81147    299104.83    15.026977 
  135500    2025.3776   -675.88482    301945.55    15.046723 
  136000    1910.3254   -687.52437    298048.08    15.099699 
  136500    1895.4543   -678.52932     309310.5    14.971223 
  137000    2134.0616   -685.67377    306106.96    14.922179 
  137500    1963.7612   -687.58703    309351.12    14.984545 
  138000    2109.7655   -678.87535    308139.97    14.950546 
  138500    1997.0408   -684.18713    296985.84    15.071113 
  139000    2102.9837   -685.27098    301670.58    15.039998 
  139500    2044.7258   -693.30399    304628.11    15.047573 
  140000    1999.6323   -660.42544    297503.65    14.955168 
  140500    1855.1574   -612.12806    330239.11    14.588471 
  141000    1975.7048   -609.27398    306180.28    14.666994 
  141500    2216.5404   -620.27558     304927.7    14.628979 
  142000     2032.783    -617.4552    299037.49    14.600369 
  142500    1985.7617   -617.11158    296830.95    14.537708 
  143000    2017.3817   -613.41315    311693.02    14.439611 
  143500    1808.5021   -621.80707    294792.11    14.600244 
  144000    2078.5118   -620.03593    297400.88    14.653281 
  144500    2113.0774     -617.267     298896.9    14.674576 
  145000    1994.0567   -618.63248    296470.29    14.685089 
  145500      1971.78    -624.7506    283099.76    14.668393 
  146000    2113.4965   -612.92803    312324.43    14.357504 
  146500     1826.115   -613.51269    305368.09    14.353556 
  147000    1975.7955   -617.71844    303866.81    14.349619 
  147500    1979.7507   -613.35743    305629.97    14.395598 
  148000     2100.144   -619.07314    321431.36    14.324555 
  148500    1855.1796   -627.89082    276407.26     14.53194 
  149000    1974.8522   -609.11692     308236.2    14.466908 
  149500    1973.2289   -615.27069    310997.28    14.370694 
  150000    1988.5933   -624.56456    260762.58    14.411432 
  150500    1729.0281   -616.90428    265777.31    14.423272 
  151000    2077.5898   -612.42025    298284.97     14.40617 
  151500     1919.137   -613.95988    305345.88    14.391647 
  152000    2138.7947   -626.93356    273447.46    14.387395 
  152500     1956.783   -614.28909     313289.3    14.406734 
  153000    2025.1258   -622.18858    289438.78    14.614858 
  153500     1909.737   -607.93748    309829.53    14.592925 
  154000    2034.2322   -607.24789     322990.4    14.608934 
  154500    1986.0247   -614.17632    298162.14    14.704833 
  155000    2055.7188   -615.81069    302142.98    14.698239 
  155500    1866.4919   -621.36618     290374.6    14.667052 
  156000    1960.0338   -620.70696    297751.71    14.638895 
  156500     2069.849   -615.35594    299803.48    14.705825 
  157000    1926.7964   -614.20509    297541.87    14.688825 
  157500    2087.4075   -628.87245    291966.65    14.765756 
  158000    1926.8561   -626.30082    291859.36    14.807127 
  158500    1973.3601   -615.34963    294619.75    14.774024 
  159000    2124.6047   -604.79821     304707.9    14.678426 
  159500    2053.0016    -598.9894    309564.12    14.726254 
  160000    1880.4061   -603.98726    313366.19    14.700296 
  160500     1869.902   -621.05762    287336.17    14.818425 
  161000    1906.4603   -620.00083    303351.37    14.711028 
  161500    1825.7281   -635.05151    286425.38    14.746544 
  162000      2105.55   -668.99876    303684.77     14.83494 
  162500    1851.7324   -750.13956    289218.38    15.543469 
  163000      1915.56   -736.89023    296306.41    15.512859 
  163500    2023.0432   -715.17507    306772.23    15.303799 
  164000    1948.1863      -750.89    282397.73    15.563942 
  164500    1897.2606   -718.30812    295685.04    15.405073 
  165000    2051.7859   -735.40976    303529.33    15.420395 
  165500    2042.3374   -725.70681    301047.62    15.415324 
  166000     1875.407   -731.91719       301145    15.388269 
  166500     1964.431   -709.01298    297448.48    15.244012 
  167000    2362.8463   -750.28714    290773.84    15.588246 
  167500    1945.2646   -724.45263    304741.53     15.33336 
  168000    2003.1307   -741.75451    296351.62    15.515896 
  168500    1903.1207   -727.50791    302856.11    15.382316 
  169000    2165.4166   -737.19407    307371.97    15.459174 
  169500    2052.9691   -602.25278    323359.53    14.608655 
  170000    1971.3938   -631.50579    284144.12    14.719937 
  170500    2157.7322   -622.07144    296698.63    14.694651 
  171000    1970.7447   -612.54791    313347.36    14.637348 
  171500    1827.9842    -631.6954    289435.26    14.739786 
  172000    1993.9271   -619.38048    308715.93    14.657199 
  172500    1998.0502   -705.24079    295606.77    15.108384 
  173000     1990.426   -735.11523    303404.02     15.39005 
  173500    1928.1685   -725.48857    303252.14    15.375794 
  174000    2017.8846   -733.82622    304588.84    15.444781 
  174500    2044.5718   -721.39808    302267.57    15.300966 
  175000    2108.0448   -729.70934    303495.82    15.318442 
  175500     2055.934   -734.22464    305433.03    15.316978 
  176000    2005.8369   -704.18488    298209.28    15.209757 
  176500    2080.9634   -608.08352    326286.95    14.528316 
  177000    1834.1002   -715.64534    295951.05    15.338389 
  177500    1789.2795   -731.03771    296674.24    15.489412 
  178000    2186.0737   -737.25653    301201.46    15.497798 
  178500    1901.6775   -629.95381    300170.49    14.814351 
  179000    2023.1362   -645.40211    298899.43    14.941631 
  179500    2106.9031   -691.89564    302285.19    15.337023 
  180000    1941.7408   -685.86551    300703.68    15.351314 
  180500    1874.7563   -701.19656    296649.78     15.32159 
  181000    1899.6688   -696.91581    299448.36    15.393764 
  181500    1879.7675   -695.26044    290105.73    15.340672 
  182000    1921.7182   -686.55769     297661.8    15.388905 
  182500    2157.3173      -643.74    302866.14    14.964586 
  183000    1836.2804   -713.13352    284583.08    15.521091 
  183500    1987.6387    -643.8063    297724.49    14.939779 
  184000    2116.9933   -612.55566    303767.62    14.775873 
  184500    2043.9688   -625.49918    294868.77      14.8159 
  185000    1933.8428   -659.89154    298243.78    15.069287 
  185500    1958.3077   -701.19721    301823.96    15.357041 
  186000    2043.2216   -627.95482    294301.51    14.766497 
  186500    2070.9377   -615.13716    301579.74    14.695512 
  187000    1974.0604   -608.64213    308369.74    14.677606 
  187500    1945.1041   -631.72854    295348.51     14.80861 
  188000    1931.1834   -653.24701    298835.35    15.023547 
  188500     2079.453   -692.20117    285014.49    15.487285 
  189000     2113.326   -701.09834    292535.49    15.448173 
  189500    2166.8487   -705.21358    295811.89    15.416773 
  190000    2108.7838   -682.98131    303704.42    15.344898 
  190500    1979.8122   -687.55301    303724.91    15.321048 
  191000    2091.4624   -691.43193     293028.5    15.423615 
  191500    1980.3288   -695.26016    288916.96    15.488294 
  192000     2054.484   -671.33985    307046.47    15.301093 
  192500    2016.6371   -666.91617    295321.37    15.159161 
  193000    2253.2503   -694.84193    298716.69    15.402219 
  193500    2015.9037   -701.09128    298331.71    15.388694 
  194000    1878.2679   -708.74028    293044.46    15.485433 
  194500    2147.1659   -678.17525    303329.22    15.105827 
  195000    2046.2677   -692.67537     295447.5    15.350786 
  195500      2003.28   -687.20988    304268.96     15.26919 
  196000    1876.6806    -680.2866    304326.75    15.328937 
  196500    2022.6998   -690.66112     298041.2    15.339709 
  197000    2097.3489   -694.12388    300904.38     15.28927 
  197500    1991.4266   -700.61368    303084.88     15.31806 
  198000    2085.7916   -654.25328    309254.88    15.027108 
  198500    1898.5468    -685.9047    306111.56    15.297161 
  199000    1810.9652   -705.99699    285564.87    15.436366 
  199500    1895.7431   -596.84021    320713.15     14.66991 
  200000    2265.7421   -615.26859    297334.81    14.736101 
  200500    2043.5209   -609.13515     284799.4    14.708089 
  201000    1995.8934   -631.29514    297723.34     14.81513 
  201500    2038.3755   -617.48048    295121.35    14.725614 
  202000    2063.9324   -652.54724    300345.58    14.972598 
  202500    2007.9781     -669.725     305481.2    15.284656 
  203000    1960.4427   -677.29451    305180.88    15.408323 
  203500    1988.1053   -687.36366    288939.97     15.45304 
  204000     1817.311   -677.69739    299824.22    15.441614 
  204500    1860.5967   -690.52454    295994.73    15.435916 
  205000    2159.3594    -669.5015    309483.06    15.283317 
  205500    2069.2821    -691.2879    296975.72    15.399722 
  206000    2237.5831   -693.17977    301045.69    15.439806 
  206500    2054.2025   -677.85078     307611.7    15.402774 
  207000    2090.4159    -675.6587     308389.6    15.346886 
  207500    2079.9843   -687.52581    298234.03    15.444303 
  208000    1854.2583    -690.7981    295957.62    15.449308 
  208500    2023.4685   -688.30837    305192.69    15.361223 
  209000    2086.1328   -680.06083    303948.87    15.431591 
  209500    1853.2767   -692.07945    294934.06    15.434583 
  210000    2011.8562   -679.88573    305413.16     15.32512 
  210500    1921.4912   -594.59003    327454.18    14.628146 
  211000    2154.3885   -625.77447    304458.44     14.89488 
  211500    1788.4519   -683.23001    303482.56    15.299145 
  212000    2066.9416   -745.21295    307035.17    15.635376 
  212500    1882.0018   -739.56405    296434.96    15.665405 
  213000    2042.7724   -741.93959    311219.97    15.623116 
  213500    2141.2398    -752.0978    286361.81    15.706036 
  214000    1905.5429   -748.47869    295982.38    15.662574 
  214500    1997.8659   -752.84373    297245.08     15.65964 
  215000    1954.3071   -737.77991    302539.67    15.548971 
  215500    1969.8258   -713.06543    304897.71    15.343966 
  216000    1957.2693   -742.65528    309902.27     15.62465 
  216500    2256.7019   -661.43652    300612.84    15.149073 
  217000    2055.7048   -693.12932    294905.98    15.440845 
  217500    1998.5587   -622.09609    297595.37    14.763041 
  218000    2198.8063   -621.06774    297610.15    14.730083 
  218500    1978.3904   -631.17422    294582.62    14.853061 
  219000    2025.6988    -637.8803    297654.84    14.897321 
  219500    1881.6504   -653.10264    293119.66    14.987129 
  220000    2139.1741     -649.352    299769.39    14.958427 
  220500    2006.3811   -658.27582    298927.93     14.98444 
  221000    1992.5673   -608.56026    316013.05    14.587716 
  221500    1965.6696   -653.58601    302668.39    14.925191 
  222000    2151.8806   -635.65142    294613.78    14.722139 
  222500    1862.2286   -613.65208    295797.64    14.679324 
  223000    1952.4119     -625.343    293834.11    14.668266 
  223500    1925.4988   -610.00432    302378.78    14.631988 
  224000    1956.5901   -620.57775    296066.37    14.671765 
  224500    2041.0172   -636.38897    296295.47    14.803416 
  225000    1993.1503   -612.86276    306106.37    14.607101 
  225500    2056.1178   -633.37802    291880.53    14.727998 
  226000    2175.3486   -639.48233    304546.93    14.710365 
  226500     2053.153   -611.09004     303591.3    14.610349 
  227000     2022.435   -606.26315    319492.84    14.569622 
  227500    1910.4831   -707.06276    299305.77    15.309023 
  228000    2098.1267   -676.43363    297769.21    15.029149 
  228500    2098.9607   -637.54074    301155.38    14.772573 
  229000    1868.1843   -627.55445    294295.87    14.786648 
  229500    2183.2244   -613.56864    299373.13    14.688786 
  230000     1922.861   -599.27171    323876.74    14.593212 
  230500    1886.7157   -681.93213    299330.41    14.936367 
  231000    2116.4229   -709.83179    302970.45    15.176563 
  231500    1844.4993   -730.77745    298685.01    15.506563 
  232000     2010.463   -735.00027    300127.44    15.430375 
  232500    2020.1573   -720.50018    295397.35    15.233087 
  233000     1918.865   -674.52998    300914.99    14.949901 
  233500    2116.7439   -655.56385    305630.86    14.970548 
  234000    1964.2419    -662.0821    299837.87    14.956358 
  234500    1885.9037   -678.57634    300450.72    14.925226 
  235000     2019.394   -725.46598     298739.6    15.256997 
  235500    1932.2672   -677.15958    301267.83    14.953152 
  236000    1908.3286   -700.48139    302601.84    15.032845 
  236500    2143.2843    -743.2622    306303.88    15.469258 
  237000    1892.3635     -746.773    306958.04    15.459227 
  237500    1985.4763   -744.93779    298616.61    15.602335 
  238000     2115.888   -740.19206     305847.1    15.535068 
  238500    2187.4193   -749.76174     297697.1    15.624209 
  239000    2028.8739   -660.31929    293454.59     15.07446 
  239500    2098.0914   -619.70126    301245.27    14.756043 
  240000      1813.89   -665.46387     292481.3    15.063576 
  240500    2045.8084   -613.42648    301660.31    14.657978 
  241000    1857.6003   -658.90188    293140.43    14.906883 
  241500    2008.2154   -743.37841    295219.02    15.672758 
  242000    1951.8202   -711.87657    301778.68    15.503516 
  242500    2000.8429   -692.99722    300762.45    15.168952 
  243000    1990.0182   -724.75605    298321.83    15.299175 
  243500       2013.8   -726.15591    301460.44    15.203564 
  244000    1944.8095   -723.55011    289879.36    15.101452 
  244500    1902.3834   -683.56451    298406.73    14.811495 
  245000    1932.5127   -703.59532    301547.81    14.838955 
  245500     1996.901    -664.1152    305249.32    14.736322 
  246000    2038.8199   -720.37988     299504.2    15.065847 
  246500    1986.8343   -715.88061    302553.37    15.123762 
  247000    1995.9059   -750.16062    311006.92     15.41658 
  247500    1970.0625    -751.5917    311128.74    15.460927 
  248000     2001.165   -735.89679    304106.25    15.295807 
  248500    1960.3619    -630.9889    296833.81    14.668498 
  249000    2020.1744   -655.43317     311112.7    14.778728 
  249500    1899.4452   -661.70471    297750.19    14.951069 
  250000    1918.6503     -674.208    302940.58    14.920141 
  250500     2120.282   -664.40353    303522.43    14.736025 
  251000    1822.6493   -673.82133    296141.07    14.930618 
  251500     1973.175   -739.06544    305240.37    15.448718 
  252000       1877.4   -743.55376    305068.77    15.550918 
  252500     2015.224    -756.1031    294061.12    15.580986 
  253000    1962.5431    -700.9639    298831.24    15.242964 
  253500    2062.1338   -681.89428    302260.05    15.035025 
  254000    2020.7424   -659.92626    302968.58    14.857495 
  254500    2174.9785   -714.81854    299728.64    15.250302 
  255000    1989.1068   -702.97772    300391.89    15.311824 
  255500    2078.6253     -675.224    301969.96    15.149749 
  256000    1773.5464   -602.69543    306191.89    14.594122 
  256500    2076.6473   -684.62295    295749.19    14.908934 
  257000    1932.8846   -606.46982    304849.86    14.495387 
  257500      2006.86   -610.06007    294208.26    14.493198 
  258000    1958.2218   -652.85081    303920.79    14.650135 
  258500    2052.7393   -650.90684    300762.87    14.647605 
  259000    1949.9638   -672.58099    295416.03     14.75923 
  259500    1925.5128   -689.26274    292216.29    14.919692 
  260000     1953.029   -604.08562    310235.97    14.428455 
  260500    1987.9867   -610.61314     308291.4    14.529481 
  261000    2111.1781   -608.52932    308274.48    14.473314 
  261500    2032.7389   -609.64814     293383.3    14.504638 
  262000     1940.842   -660.90842    292523.04    14.749911 
  262500    1964.3662   -712.02962    303354.23    15.177613 
  263000    2049.9749   -648.12364    305066.52    14.811658 
  263500    1831.9028   -608.64351    295263.29    14.645639 
  264000    2013.2448   -615.71676    298704.87    14.671556 
  264500    1999.3327   -617.92276    299413.59    14.630342 
  265000    2023.6108   -701.70047    303294.49     15.25556 
  265500    2076.1225   -693.17276    299202.03     15.09419 
  266000    1954.2581     -669.367    297169.72    15.028109 
  266500    2017.5538   -675.31717    295892.39    15.130123 
  267000    1955.9154   -652.97212    302504.13    15.040057 
  267500     1886.767   -643.28901    306498.13    15.022377 
  268000    1912.8746   -695.87134     299202.4    15.336453 
  268500    2060.4659   -707.26924    298094.57    15.189883 
  269000    1887.5309   -746.74399    304441.16    15.574854 
  269500    1957.9451   -735.87013       301629    15.460851 
  270000    1873.3934   -701.42421    299802.59    15.022566 
  270500    2033.2375   -683.99787    296875.29    14.952433 
  271000    1946.8109   -698.49074    298818.45    15.075669 
  271500    2005.8187   -747.92674    307059.11    15.565526 
  272000    2041.1478    -749.4929    303786.94    15.533484 
  272500    1951.8006   -712.56461    295179.58     15.15086 
  273000    1916.7422   -660.15815     292655.4    14.888898 
  273500    1989.6932   -678.89194    299123.57    15.185819 
  274000    1926.0367   -733.71888    299353.61    15.666006 
  274500    2052.1076    -725.1936    304205.22    15.512534 
  275000    2039.2931   -746.03531    278345.58    15.776915 
  275500    1918.0622   -639.05807    305416.67    14.946421 
  276000    1960.6151   -657.13695    292117.77    15.176592 
  276500    2080.7286   -655.79967    294731.54    15.076455 
  277000    1824.5937   -663.07276    291732.54    15.158593 
  277500     2036.909   -645.87801    306502.79    14.885196 
  278000    2114.8127   -627.56801    299196.14    14.681347 
  278500    2009.8294   -717.36228    312685.07    15.161262 
  279000    2053.6806   -666.92692    307523.51     14.80597 
  279500    1940.9106   -685.39389    307913.32    14.904315 
  280000     2021.805    -710.7198    296116.62    15.047074 
  280500    1991.1146   -718.99159    304927.36    15.079845 
  281000     2000.464    -718.3959    286401.79    15.106595 
  281500    2121.1876   -726.04271    305604.42     15.17101 
  282000    2021.7466   -714.51243    305441.91    15.123072 
  282500     2099.881   -748.44306    270329.57    15.358661 
  283000    1936.5258   -721.14946    292375.03    15.142738 
  283500    1962.0525   -715.61147    293706.36    15.089617 
  284000    1880.3806   -662.31302    313161.38    14.823944 
  284500    1897.2942   -674.48152     304162.5     14.88329 
  285000    2123.3939   -672.38998    299231.99    14.962424 
  285500     1892.699   -677.18309    291761.89    14.969842 
  286000     1986.157   -727.87149    295132.19     15.25412 
  286500    1718.0944   -685.36977     294279.9    14.923037 
  287000    2025.4746   -679.04408    312045.45    14.845757 
  287500    1903.7396   -721.26694    297365.39    15.102057 
  288000    1923.0526    -724.9404    310593.23    15.067477 
  288500    1817.4376    -725.5018    297957.89    15.194203 
  289000    1948.5854    -722.7654     307536.1    15.159596 
  289500    1939.7931     -716.995    307542.46    15.089838 
  290000    1914.5993   -726.15397    300224.88    15.109227 
  290500    1921.1503   -722.10075    295591.31    15.133717 
  291000     1834.767   -718.91276    302122.83    15.093699 
  291500    1968.0306   -729.98426    301958.36    15.180412 
  292000     1857.967   -672.29161    307127.27    14.835575 
  292500    2085.6907   -703.50655    310885.98    15.026458 
  293000    2056.3195   -730.60553    289639.55    15.210741 
  293500    1917.0842    -726.7984    308686.28    15.152291 
  294000    2007.2351   -721.69411    296093.43    15.126675 
  294500    1840.4359   -707.24047    307583.69    14.979876 
  295000    1919.7044   -728.92855    293196.82    15.171474 
  295500    2081.7637    -733.9002    299655.85    15.201902 
  296000    2012.9015   -734.50316    299058.89    15.204504 
  296500     1790.695   -720.42046    296987.49    15.094859 
  297000    1944.5792   -712.41665    311008.09    15.035784 
  297500    1936.3024   -722.99996    295256.49    15.105075 
  298000    1959.2213   -736.01103    288258.81    15.199366 
  298500    1944.1685   -730.31119     284340.7    15.188796 
  299000    1944.2924   -717.48947    301403.88    15.068529 
  299500    1836.5371    -717.0306    298642.61    15.070345 
  300000    2060.0414   -729.90429    295992.55    15.195111 
  300500    2187.9119   -711.59438    293330.03    15.131251 
  301000    1992.5594   -721.20726    307698.75      15.0476 
  301500    1989.9719   -715.26663    286264.48    15.085597 
  302000    1996.2492   -709.99792    301810.67     15.01779 
  302500    1959.5203   -728.71966    299114.51    15.145273 
  303000    2028.9417   -732.13818    302644.52    15.158976 
  303500    1963.7588   -711.00668    309638.34    15.044325 
  304000    2079.5934   -710.17054    303880.33     15.01439 
  304500    1873.8214   -720.96473    296786.04    15.122425 
  305000    2019.9121   -722.36706    303772.18    15.163777 
  305500    1927.3462   -691.31397    309139.86    14.853118 
  306000    1993.6633   -711.67216    309954.12    15.001076 
  306500    2044.5212     -687.139    306554.65    14.869276 
  307000    2023.3284   -699.76957    298830.81    15.073985 
  307500    2086.6742   -698.40754    306165.84    14.933126 
  308000    2130.0861   -699.37769    306391.58    14.912109 
  308500     1976.764   -720.80857    303512.15    15.160999 
  309000    1965.1721    -715.8857    302329.22    15.155612 
  309500    2156.2045   -718.54637     310162.5    15.080929 
  310000    2001.8646   -715.04319     305523.5    15.021931 
  310500    2036.2446   -727.09775    303777.81    15.155233 
  311000    1990.2608   -733.79557    299813.08    15.241121 
  311500    1896.4487   -719.90923    287947.11    15.085635 
  312000    2108.1395   -729.91858    298045.02    15.174084 
  312500    2095.8708   -699.16066    296003.73    14.902818 
  313000     1740.132     -707.634    295486.36    15.005859 
  313500    2039.1895   -725.74989     292542.2    15.081684 
  314000    1980.7546   -719.53143    303736.51    15.072022 
  314500    1876.8674   -687.15591    304997.64    14.887611 
  315000    1818.5339   -742.31464    289624.17    15.340893 
  315500    1892.5635   -702.93851    296255.68    15.045477 
  316000    2051.3003    -730.5879    305254.05    15.160236 
  316500    1948.2829   -731.21844    297366.77    15.160343 
  317000    1982.6399   -711.55724    309188.01    15.024005 
  317500    2013.3454   -718.92566    310270.52    15.159644 
  318000     2101.375   -731.40676    286628.89     15.27488 
  318500    1899.0851    -682.8507    308104.57    14.855645 
  319000    1876.4805   -696.35884    294308.11    15.045904 
  319500    1992.9452   -603.73508    301866.86    14.667539 
  320000    1922.1568   -595.53004    282331.75    14.705439 
  320500    2172.5994   -588.38251    302322.23    14.623201 
  321000     1878.181   -601.32811    284059.83    14.709022 
  321500    1921.7517    -579.9551    312683.28     14.59022 
  322000    2113.4623   -599.39315     297253.1    14.656009 
  322500    2078.2702   -608.07772    294357.17    14.692699 
  323000    2053.9222   -614.76732    296230.29    14.800986 
  323500    1931.1266    -595.8348    296208.79    14.628995 
  324000    2146.4542   -596.90772    301486.68    14.694756 
  324500    2212.8273   -599.61444    302104.27    14.665666 
  325000    1828.8296   -600.84524    300763.91    14.642907 
  325500    2048.6882   -608.56584     298117.3    14.689083 
  326000    1889.2437   -712.14492    291475.64    15.495892 
  326500    2046.1811   -716.15258    295979.47    15.446242 
  327000    2140.8276   -713.20092    305946.47    15.292351 
  327500    2316.3631   -696.74411    308047.09    15.248183 
  328000    2086.0014   -710.13439    296734.64     15.28765 
  328500    1928.4261   -723.26905    296165.27     15.41788 
  329000    2090.7442   -694.36973    300127.84    15.111811 
  329500    1972.4488   -610.46572    295122.65    14.662365 
  330000    2148.8906   -609.29119     309888.6    14.496822 
  330500    1932.7855   -630.01093    280403.73    14.640936 
  331000    1946.6215    -666.5157     294769.4    14.827124 
  331500    1964.5207   -627.74745    296911.43    14.600009 
  332000    2152.1587   -617.58506    296442.09    14.532373 
  332500    1985.3933   -661.08144    299595.04    14.724371 
  333000    1741.7395   -669.05141     303630.8    14.761552 
  333500     1837.783   -666.64128    296025.62    14.723533 
  334000    2155.7324   -606.47503    296168.72    14.481619 
  334500    2176.3307   -666.42741    313970.89    14.628143 
  335000     1982.959   -666.99665    285305.03    14.728762 
  335500    2132.3515   -636.42911    304398.46    14.627626 
  336000     2050.652    -667.1325    293541.73     14.74971 
  336500    1852.3983   -685.06606     284103.9    14.768155 
  337000     1993.403   -687.55724    284329.99    14.723858 
  337500    2147.8681   -669.84209    311261.52    14.593194 
  338000    1926.4791   -678.73923    299093.59    14.639937 
  338500    2078.7673   -683.59399    294563.37    14.708873 
  339000    2025.1673   -688.29941    292028.41    14.640697 
  339500    1900.3652   -676.49807    306932.67    14.604097 
  340000    2100.2476   -655.49078    306666.82    14.635793 
  340500    2043.1722   -605.74306     301277.5     14.50686 
  341000    2083.6437   -602.90387    303883.61    14.544811 
  341500    1989.3179   -629.73537    298219.24    14.727686 
  342000     1923.897   -717.27955    299743.29    15.403933 
  342500    2114.9254   -603.79842    320577.11    14.512902 
  343000    1985.6275   -668.10499     300022.3    14.918124 
  343500    2105.6575   -669.84755    302153.75    14.908436 
  344000    1885.1387   -664.32636    288732.31    14.989941 
  344500    1890.2387   -639.65784    291951.81    14.806611 
  345000    2007.1612   -681.02434    295274.95    14.977087 
  345500    2034.8514   -699.94408    300026.58    15.065667 
  346000    2000.6808   -728.92757    298653.05    15.398222 
  346500    1961.0752   -708.09472    295617.95    15.029938 
  347000    1903.5002   -700.99462    298839.93    15.003342 
  347500    1878.9803   -644.67199    303538.36    14.678164 
  348000    1961.1095   -669.22557    288331.44    14.832334 
  348500    1912.6611   -611.46671     288812.3    14.653778 
  349000    1943.2152   -613.36947    297995.59    14.636453 
  349500    1914.9054   -653.18665    293582.21    14.854853 
  350000    1984.0674   -619.31421    301925.07    14.503766 
  350500    1950.9008    -638.9471    303487.55    14.620961 
  351000    2021.0647   -648.56837    299120.68    14.655817 
  351500     2008.234    -706.5752    301796.43    15.106922 
  352000     1974.616   -730.40546    300951.38    15.275381 
  352500    2160.6501   -758.05267    315323.86    15.486518 
  353000    1980.2422   -686.43832    296324.86    14.941255 
  353500    1953.9956   -607.85796     287571.7    14.373776 
  354000    1979.9432   -608.69511    297397.99     14.36005 
  354500     2061.559   -658.69714    305380.54    14.636056 
  355000    2125.9668   -667.28889    299376.67    14.696737 
  355500    1976.5516   -659.89294    310384.17    14.618226 
  356000    1998.7549   -693.63266     294646.6    14.818781 
  356500    2104.5305   -727.81988    299343.78    15.084703 
  357000     2064.784   -756.85203    310185.91    15.361272 
  357500    1940.8197   -754.83558    301342.53    15.535986 
  358000    1932.5735   -753.78436    310339.97    15.432437 
  358500    2009.3164   -754.11227    300413.87    15.606625 
  359000    1997.9144   -753.74744    289995.13    15.672802 
  359500    1866.8005   -726.07903    293832.75    15.399795 
  360000     2056.555   -613.48582    293765.54    14.668964 
  360500    1744.2254    -599.3042    293527.71    14.656022 
  361000    2072.6181   -599.36105    306186.35    14.621746 
  361500      2000.39    -624.8053    295728.72    14.716418 
  362000     2070.113    -598.5421    304363.96    14.596452 
  362500    2145.2298   -604.56293    293685.65    14.713747 
  363000    1917.8909   -611.24967    292213.62    14.753046 
  363500     1898.769    -590.0468    304416.65    14.671801 
  364000     1848.465   -607.20952    291003.02    14.678248 
  364500    1857.4567   -592.30239    313618.49    14.590907 
  365000     2011.746   -605.42267    297975.38    14.648991 
  365500    2023.1088   -624.70788    296088.96    14.725451 
  366000    1922.6567   -656.07179    299689.31    14.806398 
  366500    1903.9718   -722.39044    303032.93    15.076958 
  367000    2096.0172   -725.74163    303794.39    15.160596 
  367500    1826.7287   -658.14174    299018.04    14.663687 
  368000    2040.0241   -652.80308    288196.03    14.721695 
  368500     2098.565   -665.86222    309301.22    14.646556 
  369000    2110.6297   -672.69959    309437.49    14.592297 
  369500    1978.3508   -673.34307    292387.05    14.676705 
  370000    1898.3617   -671.44342    299572.05    14.639639 
  370500    2170.0733   -673.70692     290588.3    14.710824 
  371000    1959.2664   -667.04332       299142    14.643636 
  371500    1808.9145   -672.59174    306886.83    14.616824 
  372000    1984.2354   -664.51365    310371.48    14.550293 
  372500    2078.9613   -680.99137    295383.76    14.652399 
  373000    2046.0154   -659.19797    304895.91    14.598665 
  373500    2040.5706   -654.57959    306694.04    14.599881 
  374000    1979.1786    -673.1183    296115.17    14.671524 
  374500    2066.7392   -671.42548    302175.26    14.652302 
  375000    1827.0253   -655.23712    294546.99    14.703225 
  375500    2091.3969    -665.4668    309385.96    14.712484 
  376000    1841.6027   -674.12235    290698.85    14.866609 
  376500    1802.0833   -615.11631    287101.14    14.573439 
  377000    1924.8814   -642.14697    298673.22    14.665571 
  377500    2173.5501   -667.23077    294411.88    14.739565 
  378000    2030.0097   -670.90675    304223.02    14.822862 
  378500    1981.6843   -720.49871    293665.19    15.317366 
  379000    2055.8287    -604.1833     300016.4    14.630946 
  379500    1896.5264   -670.09576    295637.04    15.145592 
  380000    1831.2672   -664.11624    302707.85    14.958311 
  380500    2019.0461   -689.63636    297765.74    15.104923 
  381000    1886.5698    -594.5633     322724.9    14.415261 
  381500    2116.6834   -606.16225    295216.91    14.521808 
  382000    2127.9983   -602.09943     307774.9    14.389597 
  382500    2079.5868   -605.94103    301534.53      14.4087 
  383000    2167.2922   -611.83363    309122.01    14.308824 
  383500    2127.5113   -613.30856    306733.78    14.322309 
  384000    1995.6757   -614.96044    303479.14    14.318531 
  384500    2078.1299   -617.57627    305765.77    14.306362 
  385000    2140.6428   -619.59317    282093.13    14.392412 
  385500    2021.5138   -621.81461     287485.1    14.366195 
  386000    2037.2249   -614.56059    310348.04    14.305209 
  386500    1760.2677   -619.31841    294927.64    14.314774 
  387000    1999.1264   -614.13394     286954.1    14.364018 
  387500    1923.7303   -625.56618    277075.14    14.363239 
  388000    1967.0013   -614.07808    294292.27    14.345443 
  388500    2074.1084   -593.53661    338264.94    14.324961 
  389000    1853.7779   -631.64823    305137.63    14.602723 
  389500    1974.5778   -606.06104    302638.36    14.512116 
  390000    1805.3067   -618.26207    295616.12    14.660802 
  390500    1989.3973   -706.33818    299534.35     15.18097 
  391000    2056.9587   -696.39819    297066.46    15.081097 
  391500     2049.577   -590.51197    308591.67    14.411648 
  392000    1749.6803   -621.29716    300563.41    14.571984 
  392500    2004.5352   -614.01026     291212.3    14.515063 
  393000    2046.6229   -635.58133    308082.25    14.560817 
  393500    2038.0531   -643.47756    304888.45    14.596703 
  394000    1854.6875   -690.47254    294026.61    14.866907 
  394500    1805.8233   -637.12454    300123.03    14.616091 
  395000    1950.4554   -661.77271    297366.54    14.702284 
  395500    1847.2866   -624.05097    291108.94    14.458507 
  396000    1808.3204   -717.68853    297952.63    15.153217 
  396500    1816.6263   -652.39462    298391.67    14.693658 
  397000    2057.9746   -651.55227    292667.49    14.776267 
  397500    2046.6116   -620.27037    296406.11    14.646792 
  398000    1864.2731   -610.04243    299627.21    14.629267 
  398500    2096.0316   -608.98906    296813.37    14.616978 
  399000    2012.8088   -595.92704    311938.83     14.52231 
  399500    2118.1211   -599.30204    304921.25     14.58172 
  400000    1968.5892   -614.48441    292562.71    14.686719 
  400500    2113.5992   -592.23183    307242.25    14.652154 
  401000    1953.6583   -650.28616    304122.09    14.844496 
  401500     2010.274   -699.37021    298886.23    15.379124 
  402000    1916.7023   -711.18878    289530.02     15.52818 
  402500    2012.2345   -695.11281    293673.05    15.447619 
  403000    1878.0936   -698.52619     293412.3    15.550267 
  403500    1922.4261    -690.9085     304674.9    15.430808 
  404000    1954.6297   -626.85999    307734.11    14.998319 
  404500    1967.2337   -699.21342     301486.5    15.428304 
  405000    1904.0454   -706.07013    300280.41    15.427735 
  405500    1921.7181   -692.63386    301304.79    15.459641 
  406000    2054.3891   -711.38623    291805.74    15.538459 
  406500    2145.8125    -648.6006    299943.97    15.124265 
  407000    1815.5025   -662.65607    294730.85    15.155263 
  407500    1840.7296   -666.22893    295874.45    15.275653 
  408000    2054.8705   -711.00954    298724.05    15.518021 
  408500    2087.1242   -642.21272    299982.21    14.997082 
  409000    2060.7923   -625.51484    306961.31    15.002919 
  409500    2082.3904   -645.47475    298559.76    15.106488 
  410000    2076.0266   -650.18019    298150.22    15.164778 
  410500    1945.9821   -645.11956    300996.68    14.998175 
  411000     1954.917   -633.71438    305740.19    14.929721 
  411500    1964.3389   -645.16395    301663.34    14.968116 
  412000    1874.5402   -640.10553    302733.48    15.013229 
  412500    2003.7675   -650.61272    293785.71    15.231745 
  413000    2068.9377    -632.4445    315564.09    15.024696 
  413500    2147.8793   -650.13044     299565.9    15.168008 
  414000    1945.2485   -642.82854    299084.72    15.042993 
  414500    1919.2766   -649.73944    297084.01    15.137013 
  415000    2105.9728   -627.44849     305123.7    15.005876 
  415500    2197.8309   -636.46239    297424.96    15.206207 
  416000    1950.4608   -633.45889    301425.07    15.127639 
  416500    1879.3268    -637.1609    298983.16    15.053956 
  417000    1940.6164   -623.23237    303642.05    14.876076 
  417500     1872.098   -591.13023    291377.73    14.639154 
  418000     2078.801   -583.63878    301923.07    14.648701 
  418500      2303.17   -582.55731    316227.09      14.5919 
  419000    2035.4303    -576.8285    310552.78    14.612251 
  419500      1962.46   -581.00753    309333.83    14.616189 
  420000    1961.0515   -603.54351    289238.25    14.686686 
  420500    2057.1298   -582.94666    298005.94    14.619405 
  421000     2003.153   -577.42808    299160.15    14.631237 
  421500    2229.7783   -583.44929    305363.76    14.610635 
  422000    2081.1089   -721.09377    295956.88    15.571324 
  422500    2067.6269   -702.55615    303036.36    15.461321 
  423000    2197.5341   -714.81927    303923.28    15.475948 
  423500    1928.9618   -723.63389    296517.63     15.68177 
  424000    1933.4883    -695.3113    290163.54    15.516519 
  424500    2082.4745   -692.18839    297790.09    15.479531 
  425000    1865.9876   -653.83942    292603.75    15.162031 
  425500    2036.5109   -646.31478    304386.47    15.041249 
  426000    1973.2492   -704.83882    294211.82    15.536599 
  426500    2235.4767   -705.82732    298657.46    15.583291 
  427000    2109.9224   -699.92925    304370.95    15.540191 
  427500    1989.8341   -692.85054    307200.51    15.449542 
  428000     1964.698   -620.22734    310312.68    15.009464 
  428500    1989.0666   -643.26143    298644.41    15.079975 
  429000    1942.8814   -676.70642    301471.08      15.3213 
  429500    2092.7876   -719.76237     298234.3    15.518018 
  430000    2006.6296   -709.23991    298815.79    15.460022 
  430500    2076.1193   -694.81674    301404.64    15.455764 
  431000    1923.6386   -705.18583    299044.98    15.458939 
  431500    2134.2973   -675.23408    302685.05    15.303096 
  432000    2071.7261   -682.26349     301386.8     15.30298 
  432500    2013.3943   -677.31564    293828.26    15.205086 
  433000    2006.2812    -667.3309    297644.35    15.199823 
  433500    2096.3083   -700.43291    302095.69    15.336428 
  434000    2091.3469   -715.99324    298042.27    15.326827 
  434500    2018.4995   -650.52685    300957.21    14.777627 
  435000    2061.5434   -699.17536    301533.66    15.177283 
  435500    1853.6392   -690.70208    302099.25    15.252446 
  436000    1960.1063   -639.95148    294405.66    14.795001 
  436500    2099.1857   -598.19163    300825.16    14.573588 
  437000    2049.1357   -612.38821    297410.86    14.683183 
  437500    2039.6799   -598.94485    296907.08    14.629418 
  438000    1971.0426   -593.64697    303158.61    14.610528 
  438500    2125.2491   -596.91364    300326.27    14.617173 
  439000    1843.4614   -593.96199    299890.91     14.63212 
  439500    2177.6161   -617.21829    300445.27    14.643713 
  440000    1838.2184   -666.82575    288808.56    15.059888 
  440500    2094.9058   -619.40894    300803.14    14.684979 
  441000    1842.1712   -606.11234    291881.27    14.652026 
  441500    1961.7971    -607.4093    293565.83    14.630047 
  442000    1998.4831    -638.6788    297705.87    14.758743 
  442500    2139.6529   -622.47646    301535.76    14.581088 
  443000       2054.2   -605.07736    283364.21    14.436006 
  443500     1875.193   -604.63426     298742.3    14.477383 
  444000    2100.0392   -653.86329    308969.47    14.581408 
  444500    1978.5273   -681.60943    292730.14    14.684832 
  445000    2041.1826   -662.80004    316277.01    14.595204 
  445500    2112.8476   -667.60428    293964.81    14.648393 
  446000    2094.1816   -678.42362    293367.36    14.672816 
  446500    1979.5495   -684.04309    299129.45    14.652523 
  447000    1913.8031   -682.15511    296382.19    14.663741 
  447500    2013.5947   -673.25014    294839.28    14.673632 
  448000    1816.4511   -670.56931     299881.4    14.628867 
  448500    1857.9021   -656.18353    301002.38     14.56443 
  449000    1884.2019   -620.10542    301548.06    14.570854 
  449500     1929.896   -709.55636    302884.62    15.059948 
  450000    2003.5923   -756.13172    298528.38    15.535876 
  450500    2046.9439   -755.13682    313142.31    15.507869 
  451000    1957.6041   -733.95856    302515.92    15.393727 
  451500    2028.3424   -684.16721    296498.95    14.999471 
  452000    2006.0238   -666.90656     293932.3    14.940345 
  452500    2002.0885   -649.45914     289702.3    14.793687 
  453000    2014.4991    -634.1401     302445.6    14.730323 
  453500    2153.5319   -648.07586    300721.95    14.653776 
  454000    1951.0316   -676.28069    294936.04    14.957439 
  454500     2015.383   -679.86749    296606.43    14.993847 
  455000    2082.9022   -588.26595    305278.57    14.630207 
  455500    1891.8782   -607.27732    298067.49    14.636587 
  456000    1928.4864   -590.16571    316970.19    14.481967 
  456500     2049.197   -635.36654    302386.58    14.635574 
  457000    1973.2824   -639.86977    299983.24    14.633472 
  457500    2069.8524   -641.34856    301973.59    14.651221 
  458000    1991.3949   -623.32616    296701.34    14.538756 
  458500    1856.2601   -603.99272    286497.75    14.509352 
  459000    2087.6395   -654.16871    300312.21    14.687949 
  459500    2129.1228   -642.73101    307325.02    14.594803 
  460000     1943.523   -635.50899    299740.03    14.592453 
  460500    1984.2261   -755.71749    304201.28    15.415094 
  461000    1957.9226   -759.29289    309032.35    15.480502 
  461500    2002.5531   -759.04177    302445.56    15.586419 
  462000     2051.607   -751.76051    311078.51    15.536313 
  462500    1933.4056   -752.66852    299451.52    15.673278 
  463000    1977.6052   -758.12545    300466.03     15.61832 
  463500    1933.1779   -757.67977    284343.82    15.679824 
  464000    2134.8312   -745.80028    303326.92    15.680482 
  464500    1872.5494   -753.40333     293601.7    15.627366 
  465000    1986.0338   -750.88582    296040.39    15.669622 
  465500    2128.0387   -744.79404    302864.11    15.672202 
  466000    2046.0086   -747.36086     308796.2    15.631403 
  466500    2098.4545   -749.68807    302211.27    15.664472 
  467000    2016.0115   -751.25884    284416.29    15.659673 
  467500    2096.4756   -752.72298     292534.7    15.704098 
  468000    1979.3507   -752.28328    304744.51    15.626316 
  468500     1856.204   -747.67843    308589.86    15.642966 
  469000    2087.7675   -756.64467     298593.8    15.628253 
  469500    1977.7789   -751.10281     304595.1    15.542499 
  470000    2144.1965   -753.81806     292294.5    15.646387 
  470500     2066.922   -753.33607    313016.21    15.574795 
  471000     2126.217   -727.40616    299173.06    15.308168 
  471500    1958.6993   -623.67838    298604.76    14.622942 
  472000    1860.7344   -602.59422    303505.38    14.520167 
  472500    1977.9352   -661.17299    292293.26    14.776751 
  473000    1997.4733   -593.54281    295322.03    14.411329 
  473500    2024.1115   -605.61834    294572.18    14.640279 
  474000    2165.0436   -613.18464    296774.21     14.64527 
  474500    2105.6714   -657.04166    293382.69     14.89434 
  475000    1866.6296   -604.39765    306740.01    14.563605 
  475500    1916.6748   -632.59218    302901.22     14.57872 
  476000     1964.785   -583.68232    324811.74    14.430585 
  476500    2013.5748   -634.67653    305918.02     14.58906 
  477000    1995.0489   -593.46091     306697.1    14.414357 
  477500    2112.9087   -634.64749    304574.94     14.60856 
  478000    1900.9631   -630.04735    299126.21    14.627887 
  478500    2100.6566   -680.83967    294755.76    14.702521 
  479000    1999.8653   -705.20418    299094.79    14.761248 
  479500    2138.3537   -668.22189    300593.47    14.571828 
  480000    2041.9625   -736.45271    298131.48     15.10922 
  480500    2075.0274   -751.24605    310329.38    15.308855 
  481000    2016.9178   -716.97963    299756.33     15.14631 
  481500    2120.1711   -738.33938    304764.04    15.389434 
  482000    1816.9744   -757.59325    300017.74    15.504529 
  482500    1961.0802   -762.60009    285271.62    15.554074 
  483000    1884.3712   -755.62661    292356.45    15.539731 
  483500    1958.2136   -753.90208    319067.46    15.471002 
  484000    2013.8948   -750.77402    314645.41    15.475794 
  484500    2036.2614   -758.27962    298768.26    15.599552 
  485000    1904.2129   -686.42195    300084.28    14.876825 
  485500    2029.6732   -652.84255    303633.08    14.733082 
  486000    1954.2586   -658.87252    300841.47    14.774984 
  486500    2064.4046   -678.92003    295224.82    14.979182 
  487000    2124.7061   -655.65033    301427.54    14.943842 
  487500    2185.1172    -711.8888     296364.8    15.480739 
  488000    2035.3163   -688.91052    301332.07     15.33407 
  488500    1925.5798   -678.13941    298722.83    15.073931 
  489000    1970.5858   -591.26997    305074.64    14.485617 
  489500     2030.744   -634.53836     295274.7     14.74347 
  490000     1957.575   -626.87146    300905.38    14.628982 
  490500    2065.5523   -667.08172    295049.67    14.740176 
  491000    2177.5523    -668.5051    295753.73    14.671608 
  491500     1910.435   -650.52909    299603.66    14.660319 
  492000    2085.5424   -638.12912    311634.06    14.533805 
  492500    1892.9335   -628.95982    299957.85    14.483616 
  493000    1809.3066   -647.11002    304108.19    14.505359 
  493500    1971.8067   -587.24782    308330.08    14.419136 
  494000    1972.1695   -676.34023     286686.5    14.741402 
  494500      1915.28   -635.83622    306732.22    14.577124 
  495000     1980.224   -706.78788    296028.59    14.990748 
  495500    2015.2968   -686.82782    299912.89    14.952267 
  496000    2006.0342   -641.03786    297494.13    14.724984 
  496500    1935.7096   -614.48618    293067.12    14.604165 
  497000    2005.0319   -624.93721    298528.77     14.76596 
  497500    2151.6476   -633.84336    307332.44    14.693184 
  498000    1935.0618   -613.08707    297089.68    14.718731 
  498500    2040.4205   -636.64275    302267.46    14.850442 
  499000    1987.2183   -747.74772    281422.29    15.782266 
  499500    2145.0104   -761.63849     279148.1     15.68937 
  500000    1880.0343   -747.26234    302648.15    15.671279 
  500500    2027.5424    -749.2812    309606.89    15.621712 
  501000    1987.3574   -745.11232    305717.78    15.617921 
  501500     1932.624   -704.11654    306767.19    15.482298 
  502000     1866.705   -690.34505     294191.3    15.496951 
  502500    2027.2381   -679.97766    300384.53    15.326574 
  503000    1907.3704   -677.31389    295171.73    15.346441 
  503500    2054.5505   -616.54607    296280.61    14.799059 
  504000     2072.163   -707.86816     293202.1    15.541721 
  504500    2116.4474    -656.6843    294946.93    15.083552 
  505000    1924.6301     -701.563    300518.52     15.54889 
  505500    1972.6761   -645.60682    300957.77    15.078589 
  506000    2174.7103   -662.05712    300254.89    15.252645 
  506500     1972.581   -649.56286    296746.83    15.130197 
  507000     2041.998   -705.10678    299276.33    15.596224 
  507500    1960.9904   -696.90403     297728.6    15.518805 
  508000    1898.6956   -680.15214    299155.63    15.453128 
  508500    1889.0125   -698.42671    301181.24     15.50124 
  509000    1836.7868   -655.23817    295550.43    15.125618 
  509500    2061.4342   -714.43324    295785.71    15.572653 
  510000    1894.6478   -706.48648    292551.18    15.562441 
  510500    2047.7201   -689.89848     305084.6    15.446491 
  511000    2053.9816   -709.34179    300117.45    15.470227 
  511500    1902.7313    -708.8582     301610.5    15.421908 
  512000    2122.4277   -701.31312    295897.89    15.486784 
  512500    2127.8528   -702.88796    301603.03    15.460733 
  513000    2052.9855     -608.179    296146.45    14.788227 
  513500    2004.6046   -591.93198    299829.09      14.5534 
  514000    1881.5112   -593.02092    299193.53    14.514758 
  514500    1906.7139   -648.35223     297368.6    14.814694 
  515000     1999.007   -639.46658    290404.43    14.782057 
  515500    1975.0962   -635.93148    293780.44    14.789091 
  516000    2000.1437   -621.22166    296146.21    14.787938 
  516500     2006.116   -598.84423    300989.69    14.607931 
  517000    1983.2055   -588.00588     304651.8    14.509361 
  517500    1907.6539   -611.64659    288366.86    14.580972 
  518000    1977.8588   -598.62187    299322.77    14.428659 
  518500    1904.8197   -621.60581    303946.88    14.575791 
  519000    2019.1194   -656.25971    298622.23    14.689053 
  519500    1981.8907   -669.20158     292461.1      14.6878 
  520000    2035.6172   -660.25636    295713.01     14.72298 
  520500    1887.8862   -666.63449    301946.68    14.772313 
  521000    1960.0499   -628.05197    301435.75    14.595214 
  521500    1909.8699   -629.49553    306112.12    14.622872 
  522000    1914.4392   -591.61905    308672.03     14.47491 
  522500    1909.5905   -653.21802    291833.07    14.761951 
  523000    2095.4413   -598.95696    312131.11    14.475901 
  523500    1844.9424   -653.55201    298593.38    15.086957 
  524000    1983.3632   -664.19898    297338.67    15.152607 
  524500    2026.2879    -663.9877    295561.35     14.92224 
  525000    1975.2444   -625.05946     300491.9    14.829749 
  525500    1865.6956   -578.48679     315666.3    14.562655 
  526000    2097.1547   -600.04667    298537.88    14.659428 
  526500    2045.1659   -608.67296    294592.78    14.727869 
  527000    2091.6703   -654.20391    293914.21    14.944587 
  527500     2033.906   -588.59703    307219.18    14.536175 
  528000    1834.1301   -598.14934     297149.1    14.609457 
  528500    1898.1143   -596.37054    284129.95    14.464465 
  529000    1905.5525    -655.4035    304719.33    14.713486 
  529500    1902.5934   -724.24105    298917.85     15.26969 
  530000    2169.3179   -693.72185    306280.74    15.014996 
  530500    1976.6868   -655.80898       285645    14.756083 
  531000    1947.4692   -630.24297    297430.52    14.630456 
  531500    1787.2411   -628.39934    296995.45    14.660276 
  532000    2181.6276   -627.34188    300206.76    14.670514 
  532500     2003.288   -609.68399    289330.87    14.602962 
  533000    2023.6702   -584.61337    328042.22    14.480403 
  533500    1942.3408   -692.29813    302915.27    15.351683 
  534000    1924.6649    -718.0255    296888.16    15.407736 
  534500    2096.1108   -672.86383    308211.48    14.878702 
  535000      1909.59   -720.12843    297179.35    15.314655 
  535500    2018.1655   -676.19419    302925.54    15.042667 
  536000    1882.4193   -665.44604    307942.77    14.868083 
  536500    2009.1992   -758.84353    301027.28    15.612034 
  537000    2005.5198   -751.68757    309866.11    15.483576 
  537500    1929.9226   -739.11045    302066.56    15.244049 
  538000     2080.315   -758.55766    305745.33    15.405462 
  538500     2073.518   -709.24834    300916.43    14.906825 
  539000    2069.1904   -753.32862    312863.46    15.386435 
  539500    2134.9827   -762.76619    295095.43    15.442911 
  540000     1998.815   -758.10881    306483.64    15.378038 
  540500    1938.1432   -759.19796    306639.49    15.410045 
  541000    2040.6107   -754.55576    301316.84    15.408027 
  541500    2075.6973   -747.54946    285780.11    15.462513 
  542000    1913.9583   -741.57743    301856.76    15.469444 
  542500    2042.1496   -711.21602    298113.91    15.120281 
  543000    1991.7983   -704.87103     303346.8    15.188074 
  543500    1968.5595    -593.0824    304244.39    14.485107 
  544000    1828.5836   -625.33066    298401.73    14.640491 
  544500    2168.8233   -623.90268    307075.31    14.616176 
  545000    2087.1638    -747.0337    275968.57    15.645715 
  545500    1844.7526   -753.49062    314959.01    15.495559 
  546000    1908.0504   -750.87072    307342.98    15.494438 
  546500     2091.085   -744.18528    300598.35     15.43493 
  547000    1876.0833   -714.88676    301314.98    15.163666 
  547500    2054.3658   -698.67941    302206.95     15.11843 
  548000    2256.4666   -710.58696    302449.37    15.159984 
  548500    2144.0913   -696.17037    304332.84    15.038239 
  549000    2110.7567   -760.16782    303842.04    15.392525 
  549500    2021.7288   -765.05127    285014.85    15.464556 
  550000    2056.8513   -687.27636    297306.32     14.62793 
  550500    1932.6741   -699.94766    301961.32    14.771147 
  551000    1940.3594   -724.41822    292188.57    14.953142 
  551500     1943.539   -710.00932     302218.1    14.850208 
  552000    1877.0448    -703.6065     295937.2    14.866194 
  552500    2034.2375    -722.5404     292579.2     14.99416 
  553000    1903.4444   -724.34404    297335.21    15.141728 
  553500    1804.9493   -644.35589    303585.54    14.638373 
  554000    2153.4018   -713.81092    297823.79    15.009969 
  554500     2182.779   -720.58148    303233.01     15.09095 
  555000    2032.2511   -718.32084    303066.18    15.101184 
  555500    1904.4954    -722.4146    293540.83    15.194353 
  556000    1992.4915   -714.82124    309392.57    15.011402 
  556500    1960.9154   -718.49749       304861    15.044832 
  557000     1994.895   -730.74342    295242.04    14.994164 
  557500    2056.5535   -694.77769    300476.95    14.710886 
  558000    1984.5851   -673.36203    288122.93    14.661153 
  558500     2116.583   -726.89406    287882.41     15.01531 
  559000    2175.6193   -718.57481    303368.89    15.059409 
  559500    2200.4092   -695.55375    307876.89    14.943563 
  560000    2104.6556   -740.16336    302343.86    15.501354 
  560500    1859.7581   -657.30089    298068.46    14.836531 
  561000    2033.8551   -648.87068     302034.8    14.713083 
  561500    2070.7095   -754.21506    291353.08    15.555538 
  562000    2188.9402   -705.49161    309994.73    14.980189 
  562500    2054.8759   -709.30522    297743.95    15.110082 
  563000    1936.0904   -730.80627     299260.1     15.20909 
  563500    1992.7326   -719.49873    284069.39    15.339656 
  564000    1885.6411   -662.44756     303507.3    14.835319 
  564500    1916.5129   -733.53822    296346.06    15.320166 
  565000    1920.8551    -716.5991    298299.68    15.345469 
  565500    2121.2921    -712.4847    301715.16    15.165351 
  566000    1949.8613    -712.8438    295613.86    15.150018 
  566500    1870.7522   -663.97334    295479.25    14.899713 
  567000      2050.74   -607.73401     292967.5    14.687297 
  567500    1791.0764   -603.50487    293522.79    14.653494 
  568000     1871.944   -589.86002    306788.43    14.558499 
  568500    2034.9104   -637.79044    300961.99    14.849283 
  569000    2113.6578   -710.41499    295558.13    15.455982 
  569500    2137.9653   -703.72644    292925.14     15.46476 
  570000    2006.9423   -710.08399    301813.45    15.374328 
  570500    1907.3453   -689.38333    297220.41     15.45018 
  571000    1856.7319   -690.51557    300902.39    15.415063 
  571500    2178.6727   -637.08862    309250.93    14.969376 
  572000     2023.121    -718.1165    295130.26    15.534248 
  572500    1837.2237   -721.61197    295684.49    15.554962 
  573000    1933.9159   -713.67699     295415.8    15.527042 
  573500    2236.6448   -697.46388    307380.99    15.422087 
  574000    2038.7606   -703.73688    297132.54    15.486679 
  574500    1941.8915   -711.03941    295869.64    15.445464 
  575000    2060.4714   -659.00905    307678.75    14.915564 
  575500    1996.6416   -613.05708    298051.02    14.605719 
  576000    2144.5016   -607.08504    300770.06     14.62117 
  576500    2018.4747   -623.04763    297597.78    14.686473 
  577000    2020.5579   -582.00992    321103.78    14.529731 
  577500    1913.3674   -660.52492     298285.2    15.145394 
  578000    2041.1978   -651.95211    303511.63    15.019936 
  578500    2078.2582   -727.65124    298571.95    15.658167 
  579000    2174.3071   -693.54782    299987.23    15.459152 
  579500    2112.6958   -616.94249    299997.42    14.822721 
  580000    2103.4761   -595.13089    302653.28    14.577858 
  580500    2217.6596   -617.17589    296016.04    14.712068 
  581000    1968.8103   -685.26782    301003.15    15.306626 
  581500    2114.3521   -703.10459    299960.06    15.479346 
  582000    2046.8099   -665.50742    299610.18     15.16677 
  582500    1992.4054     -708.857     292970.7    15.636036 
  583000    2100.8588   -709.57848    294662.48    15.580097 
  583500    2134.5452   -708.27232    290687.01    15.617399 
  584000     1940.577   -719.33726    297499.64    15.688585 
  584500    2124.0128   -702.97693    303597.96    15.586392 
  585000    1955.6091   -691.90024    300264.37    15.582368 
  585500    1957.9652   -681.14216    300984.87    15.474127 
  586000    2048.8659   -637.63177     298153.7    15.172783 
  586500    2163.5011   -642.32762    300124.25    15.097152 
  587000    2027.6006   -650.70867    296093.03    15.052889 
  587500    2088.1066   -647.66029    295477.27    15.089348 
  588000    2120.6688   -587.24331    294742.05    14.676725 
  588500    2154.9136   -578.71861    309576.46    14.604472 
  589000    2133.9773   -593.98622     296718.7    14.604171 
  589500    1932.2572   -574.72285    319467.07    14.582798 
  590000    1936.5682   -583.27854    295264.47    14.632337 
  590500    2016.9619     -615.007    308893.87    14.902196 
  591000    2113.1512    -633.7268    307354.31    15.146093 
  591500    2153.3118    -630.1248    309687.98    15.054549 
  592000    2118.7809   -625.81108     303235.9    14.984782 
  592500    2137.8549   -633.17668    304505.69    15.101146 
  593000    1887.5779   -629.99207    301150.39    15.050009 
  593500    1988.6317    -641.6903    301607.47     15.07891 
  594000    2065.7381   -638.90768    300552.63     14.95021 
  594500    2179.0792   -640.78806    298532.06    15.097784 
  595000    2019.3648    -636.6292     299033.3    15.176079 
  595500    2016.7858   -715.41422    291393.27    15.736292 
  596000    1937.8173   -695.87065    298602.29    15.625142 
  596500      1889.85   -702.15352    301938.88    15.626827 
  597000     1874.475   -728.42688    298210.34    15.783396 
  597500    2058.6365   -714.38806    303423.07    15.624874 
  598000    1990.1316   -680.23298    304651.76    15.493923 
  598500    2074.9764   -690.93718    299148.65    15.589907 
  599000    2051.0354   -690.07885     299199.8    15.560452 
  599500    1844.6722   -703.48511    298814.49    15.529642 
  600000    1972.6486   -710.37176    307070.84    15.510574 
  600500    2050.7785   -699.62577    294823.33    15.639151 
  601000    2005.7978   -694.07444    296494.12    15.587994 
  601500    1964.3846   -704.47411    306707.52    15.607266 
  602000    1912.1913   -632.87299    306345.87    15.113719 
  602500    2212.4667   -662.49837    297309.25    15.322128 
  603000    2036.9581   -705.52978    302704.31    15.573909 
  603500    2107.4884   -704.74564    301841.94    15.509644 
  604000     2090.494   -705.09468    296304.39    15.558912 
  604500    2019.0828   -734.85551    296962.54    15.823041 
  605000    2046.3379   -703.84234    303226.75    15.622978 
  605500    2016.0084   -710.84622    297786.59      15.6164 
  606000    2041.4943   -714.25323    298432.17    15.648062 
  606500    2120.0455   -700.42345    304140.34    15.540627 
  607000     1951.159   -677.78392    301402.65    15.460509 
  607500    2197.0671   -667.05409    304327.87    15.242566 
  608000    1869.1745    -699.0802    280696.55    15.611712 
  608500    1931.5441   -689.89044    298416.62    15.423161 
  609000    1914.4427   -702.41805     304686.8    15.615628 
  609500     2085.778   -715.70772    298606.98    15.620035 
  610000    2064.1762    -743.5376    306692.82     15.67635 
  610500     1899.727   -741.56055    302443.34    15.702645 
  611000    1920.9199    -743.5102    305509.64    15.656559 
  611500    1881.9293   -744.92719    304173.03    15.716383 
  612000    2032.4892   -749.16281    292496.42    15.773348 
  612500    2089.6639   -750.01693    301508.81    15.670801 
  613000      1911.63    -759.2511    293939.37     15.63158 
  613500    1960.8118   -745.86629    310669.93    15.594824 
  614000    1995.6269   -755.37361    302622.83    15.646754 
  614500    2030.9002   -761.58839    286732.61    15.655081 
  615000    2149.8645   -754.63089    268325.75    15.724429 
  615500    1960.9359   -750.70137    292790.61    15.690306 
  616000    2116.1277   -612.48331     293039.9    14.666808 
  616500    1972.1268   -599.27029    303236.88     14.46561 
  617000    2160.4717   -636.32494    305733.49    14.656514 
  617500     1872.582   -676.69872    312452.13    14.830461 
  618000    1900.4937    -718.2452     305519.2    15.181622 
  618500    1934.0463   -658.15501    294504.01    14.807729 
  619000     1910.479   -676.98171    302551.36    14.894958 
[...]
14848500    2061.5057   -723.29436    293215.71    15.167974 
14849000    1996.9462   -714.13045    307276.28    15.050609 
14849500    2112.6633   -658.03478    295780.19    14.713431 
14850000    1930.7658   -627.94413    301417.07    14.644988 
14850500    1954.9378   -654.91949    306533.58    15.109982 
14851000    2287.8862   -658.28087    303692.64    15.020154 
14851500    2099.7359   -674.92957    300505.61    15.284338 
14852000    1969.8265   -684.08845    299555.47    15.289394 
14852500    2021.6477   -717.18108    300227.71     15.62312 
14853000    2106.7249   -680.36464    303033.31     15.32161 
14853500    1922.9896   -591.93331    295387.42    14.618981 
14854000    2046.1979   -585.94882    304259.89    14.556693 
14854500    1908.7189   -579.60168    301958.58    14.512818 
14855000    1957.6338   -637.47667    298787.85    14.888158 
14855500    1862.5276   -682.44556    299566.82    15.266508 
14856000    1993.2362   -668.96571    296843.01    15.129946 
14856500    1994.4597   -673.41783    296480.55    15.150265 
14857000    2030.7332   -642.97613    303781.02    15.052285 
14857500    2064.1665      -702.34     296308.3    15.411472 
14858000    2042.5815   -628.01887    299378.68    14.875667 
14858500    2133.4692   -700.99439    302728.18    15.417818 
14859000    1916.1957   -620.53115     306217.9      14.9787 
14859500     2113.029   -682.73865    300772.17    15.300999 
14860000    2032.8106   -695.46985    298037.18     15.39052 
14860500    2067.0828   -699.72129    302051.58    15.392443 
14861000    2019.0175    -694.2252    300957.85    15.269166 
14861500    2025.5517   -709.47741    302634.43    15.416886 
14862000    2016.0526   -727.49101     288379.8    15.386494 
14862500    1986.2662   -699.06477     303623.5    15.197516 
14863000    1862.3055   -657.50762    300745.74    14.887311 
14863500     2231.046   -629.20649    307476.27    14.596996 
14864000    2016.7459    -598.0281    291792.57    14.486408 
14864500    2139.0529   -691.93648    295587.16    14.946691 
14865000    2053.9969   -647.92263    304383.87    14.646377 
14865500    1999.5677   -665.85607    307912.02    14.664171 
14866000    1931.8321    -678.5325    301068.98     14.80235 
14866500    1834.0834   -670.04952    297578.22    14.899327 
14867000    2049.9301   -744.10657    301069.42    15.417087 
14867500    1861.0414   -754.31116    292986.18    15.735843 
14868000    2210.4616   -741.64998    301348.24    15.384625 
14868500    2095.0478   -724.88549    279332.19    15.151145 
14869000    2022.0967   -746.88255    294964.27    15.367671 
14869500    2116.4256   -720.18498    307917.77     15.32348 
14870000    1984.7772   -719.97844    288971.01    15.267491 
14870500    1849.4909    -696.7458    301353.11    15.101926 
14871000     1891.122   -706.91927    297735.57    15.072909 
14871500    2043.6633   -715.70186    303261.98    15.077517 
14872000    1955.9331     -737.003    289093.85    15.327501 
14872500    1997.4312   -755.43768    288499.85    15.449269 
14873000    1876.9263   -723.69191    295847.78    15.020833 
14873500    2136.4958   -727.34063    298827.13    14.973772 
14874000    1816.5048   -712.16242    308563.79    14.981117 
14874500    1711.9808    -697.9844    297818.42    15.093592 
14875000     2020.899   -723.08348    306958.99    15.325974 
14875500    2192.4509   -670.41318    303526.56    15.017778 
14876000    1956.8112   -732.30351    301365.71    15.549288 
14876500    1957.9672   -748.87412    301567.56    15.537343 
14877000    1827.2684   -702.18697    302997.87    14.981001 
14877500    2044.9022   -725.41458    298010.23    15.232699 
14878000    2068.2392   -731.39005    302494.02    15.246341 
14878500    1808.2287   -712.23457    299787.41    15.105435 
14879000     1908.518   -739.05686    299804.96    15.257182 
14879500    1921.3221   -733.15757     294418.2    15.230906 
14880000    1952.2017   -742.19205    290511.34    15.353153 
14880500    1874.8728   -737.58254    295052.62    15.380653 
14881000    2071.3846   -729.26238    298948.29    15.384268 
14881500    1897.8423   -694.71642    302283.64    15.233088 
14882000     1807.292   -674.26251    296957.68    15.060041 
14882500    2138.7435   -633.27681    301402.17    14.572387 
14883000    1911.2312   -666.90655    299512.73     14.93246 
14883500     2001.327    -662.8563    300682.99    14.970581 
14884000    1995.9318   -634.59466    298811.93    14.729669 
14884500    2077.6537   -659.67009    293828.34    14.873506 
14885000    1888.9106   -694.72885    301901.76    15.134303 
14885500    1840.4162   -696.87278    303582.17     15.21739 
14886000    1931.0702   -645.15205    301246.29    14.748396 
14886500    1994.3636   -648.70816    296426.51    14.874465 
14887000    1974.6626   -701.26902    300615.85    15.180934 
14887500    2161.0002   -622.01093    312975.84    14.600006 
14888000     2084.194   -730.64931     297293.1    15.303079 
14888500    2120.7246   -645.72556    304091.24    14.775711 
14889000    1994.3595   -683.51605    297582.73    14.948784 
14889500    1962.1716   -682.63872    301320.41    15.068214 
14890000    1963.6075   -656.57768    298333.63    14.665637 
14890500      2136.98   -679.74592    294351.81    14.895175 
14891000    1878.2271   -704.09745    304286.34    15.125219 
14891500    2036.1945   -705.58386    304289.08    15.101514 
14892000    2064.6994   -733.77413    297945.87    15.153776 
14892500    2172.8462   -611.13172     308291.5     14.42594 
14893000    1916.2972   -610.20183    301850.46    14.428677 
14893500    1924.6221    -570.5215    326358.73    14.233997 
14894000     2196.159   -641.08316     301909.1    14.531981 
14894500    1966.0204    -644.2444    302274.85    14.690019 
14895000    1908.2407   -652.49773    299002.66    14.730532 
14895500    1706.6707   -667.27556    294867.01    14.959636 
14896000     2108.399   -730.39543    302866.14    15.208766 
14896500    1992.4762   -754.23439    297915.72    15.346623 
14897000    1891.4728   -727.65583    297542.92    15.252604 
14897500    2098.6151   -724.72164    309223.99    15.293717 
14898000    2173.1087   -722.05998    284664.69    15.273151 
14898500    2161.8699   -757.85994    286996.36    15.474374 
14899000    1895.4874   -733.01467    298230.22    15.202269 
14899500    1943.8947   -660.94212    299277.77    14.685175 
14900000    2009.5607   -648.53552    304164.35    14.524639 
14900500    1875.9089   -702.42507     304855.7    14.785946 
14901000    2013.2591   -694.43078    305014.65    14.802739 
14901500    2107.0576   -719.49643    295952.87    14.936105 
14902000    2052.4385   -714.79824    294135.61    14.834686 
14902500    2046.0303   -706.45011    300300.11    14.749221 
14903000    1912.8818   -707.22423    305720.56     14.86516 
14903500    1983.3486   -687.39312    302062.17    14.692994 
14904000    2020.3068   -720.79569    302395.72    14.947433 
14904500     1931.415   -716.07975    311412.45    14.903022 
14905000    2099.4521   -636.61392       303186    14.429016 
14905500     1814.394   -707.20587    295623.33    14.979583 
14906000    2022.0722   -718.66815    300945.55    14.918627 
14906500    1909.1697   -710.02447    289073.86    14.871056 
14907000    1985.1921   -723.47015    304215.52    14.899707 
14907500    2031.3095    -636.9328    293017.74    14.458992 
14908000     2025.643   -722.09794    300844.21    15.016637 
14908500     1943.721   -712.91398    302952.53    15.017074 
14909000    1986.1179   -647.64068    300165.12    14.482779 
14909500    2126.2573   -646.47334    299370.74    14.554552 
14910000    2041.3544   -658.81732    296671.94    14.583964 
14910500    1971.3699   -715.91375    304207.54    14.870625 
14911000    1724.5626   -722.38195    302408.77     14.86134 
14911500    1980.3706   -712.47271    294424.66     14.91304 
14912000    2056.5669   -705.39265    304173.73     14.89548 
14912500    2018.2628     -655.302    313405.95     14.53954 
14913000    1911.0064   -658.91714    303369.99    14.542963 
14913500    1920.8651    -665.4905    303636.76    14.561808 
14914000    1957.3612   -697.35766    305730.17    14.829674 
14914500    1942.2986    -641.5129    302298.52    14.486231 
14915000    2006.6009   -718.74761    284233.66    14.922546 
14915500     2116.769   -733.48236    301312.33    15.054135 
14916000    2066.3583     -706.122    313609.39    14.765022 
14916500    2003.1438   -675.57274    300815.63    14.649291 
14917000    2028.9262   -626.03203    307032.51    14.450889 
14917500    2117.0412   -707.86829    303031.23    14.995846 
14918000    2215.8517   -707.95512    294846.16    14.882896 
14918500     1904.403   -730.35739    289447.85     15.04886 
14919000    1963.6814   -704.65098    302586.92    14.808983 
14919500    1885.6153   -696.26146    280500.24    14.876514 
14920000    2054.2381   -651.71556    303715.33    14.573803 
14920500    1995.2383   -674.99425    287707.97    14.674047 
14921000    2019.0379   -664.13402    304840.65    14.640465 
14921500    2162.3489   -683.20706    299953.02    14.772037 
14922000    2110.1876    -722.8436    296680.46     15.06915 
14922500    2147.8563   -679.54129    301773.55    14.773831 
14923000    2112.0265   -690.17574     300802.1    14.825043 
14923500    1975.9717   -728.35946    293174.82    15.041228 
14924000     1980.945   -646.19414    297855.03    14.458574 
14924500    2050.1165   -674.48489    304965.33    14.673174 
14925000    1966.8406   -727.37379     299395.8     15.05357 
14925500    2166.8729   -678.52739    300122.35    14.622952 
14926000    1922.9132   -710.04655    289562.88    14.918555 
14926500    2166.0145   -698.43089    306622.49    14.955389 
14927000     2125.038   -696.22516     305549.2     14.92255 
14927500    1891.8978     -622.766    289768.41    14.429876 
14928000    2010.7429   -730.41605    294804.66    15.036817 
14928500    2004.0595   -674.39792    307116.79    14.625991 
14929000    1869.2893   -638.86732    302285.91    14.572221 
14929500    2131.2127   -658.46182    304701.01    14.584339 
14930000    2279.8601   -711.19597    304667.98    14.901711 
14930500    2050.5986   -684.78671    295846.92    14.681699 
14931000    2124.8222   -651.47944    290693.18    14.546372 
14931500    1987.0581   -682.75246    291751.42    14.735079 
14932000    2044.6634   -654.72879    302129.93     14.57716 
14932500     1923.286   -674.57047    303313.76     14.71818 
14933000    2110.4459   -682.92403    291882.81    14.747538 
14933500    2025.1497   -679.17338    303029.42    14.648143 
14934000     2031.772     -690.719    289757.81    14.713024 
14934500     1814.185   -683.23018    299870.69    14.612284 
14935000    1921.6157   -671.40847    295523.32    14.677231 
14935500    2125.1119   -583.20179    304407.11    14.367927 
14936000    2014.1535   -630.46426    310059.01    14.664019 
14936500    1932.2218   -623.63116    292931.68    14.554002 
14937000     2077.341     -656.423    293754.98    14.766235 
14937500    2017.0833   -711.46724    297626.16    15.464628 
14938000    2019.3875   -649.87817    297635.16    14.928071 
14938500    2058.5982   -676.48091    299669.82    15.184611 
14939000     2147.729   -650.33762    299567.46    14.943693 
14939500    1975.4629    -701.1096    287363.46    15.356958 
14940000    2025.4497    -699.8617    301581.21    15.390592 
14940500    2163.8764   -672.82287    303301.73    15.144246 
14941000    2124.0326   -690.78462    306139.77    15.285164 
14941500    2091.1304   -625.18591    299530.11    14.801097 
14942000    2380.7826   -699.19934    305137.32    15.242556 
14942500    2129.4879   -713.81228    295841.11    15.322963 
14943000    1961.6652   -717.49464    300754.07    15.260637 
14943500    1995.3102   -716.13911    298730.02    15.276565 
14944000    2011.4131   -740.22226    301231.91    15.350246 
14944500      1847.03   -758.49958     288996.2    15.518442 
14945000    1955.2998   -705.49832    299264.73    14.986143 
14945500    2003.4604   -728.56859    300072.63    15.178756 
14946000    2053.8335   -697.79758    303332.54    14.909445 
14946500    1942.9397   -695.69043    305536.01    14.986538 
14947000    2130.6115   -736.31865    299203.52    15.259589 
14947500    1935.6902   -751.27085    289693.05    15.450425 
14948000    2169.1539   -749.37127    295005.24    15.356648 
14948500    1792.1288   -746.46423    269399.77    15.370455 
14949000    1855.6829    -732.5535    307616.65    15.249963 
14949500    1915.0396   -743.41868    303018.14    15.346824 
14950000    1870.0264   -747.54152    303834.26    15.341674 
14950500    2007.0869   -736.58928    305709.91     15.44719 
14951000    1948.0074   -756.80515    273065.52    15.679092 
14951500     1982.615   -751.10811     299335.8    15.705157 
14952000    2018.0826   -748.90107    297807.39    15.722466 
14952500    1925.8098   -703.69704    296469.59    15.090829 
14953000    1983.4356   -711.03323    293623.41    15.006262 
14953500    1964.0682   -717.58636    301119.03    15.039944 
14954000    1979.5053   -736.88102    296503.39    15.208211 
14954500    1993.3189   -666.25801    299101.26    14.768328 
14955000    2130.3714   -651.56034    297606.58    14.725337 
14955500    1955.6929   -727.01757    289016.47     15.16264 
14956000    2139.8718   -661.32491    300557.94    14.690586 
14956500    1994.7735   -677.06876    300045.59    14.768654 
14957000    1768.1868   -693.37403    299292.85    14.795707 
14957500    2054.6497   -710.26959    302870.35    14.928296 
14958000    1950.5345   -715.80572    301011.94    14.887414 
14958500     1816.884   -715.81152    299375.29    14.903134 
14959000       2075.2   -664.33593    320878.91    14.614114 
14959500    2023.4904   -710.83144       296303    14.843309 
14960000    1914.6579   -694.13846    302520.48    14.708968 
14960500    2139.2711    -693.2416    286116.22    14.764708 
14961000    2063.1721   -712.82825    305013.08    14.845083 
14961500    1984.9373   -715.85708    286116.86    14.905771 
14962000    1969.9576   -706.17218    299196.96    14.847079 
14962500    1955.4881   -720.35125    290682.16    14.866274 
14963000    1799.3783   -713.46316    300213.08    14.802205 
14963500    1871.8559   -713.62562    300421.73    14.862112 
14964000    1990.7195   -685.04941    306961.77    14.648275 
14964500    1793.5451   -693.01713    305125.43    14.775671 
14965000    2037.4295   -723.08968    300280.53    14.938345 
14965500    2028.1017    -717.8656    302734.99    14.913308 
14966000    1974.2514   -681.60524    309698.14    14.618398 
14966500    1858.1659   -721.17963    294086.54    14.968303 
14967000    2020.0886   -685.96076    289339.02    14.767954 
14967500    2032.9383   -638.31452    295953.24    14.487514 
14968000    1997.0656   -691.58606    293547.97    14.754746 
14968500    2039.6616   -672.59894    305976.38    14.666381 
14969000     2121.223   -715.13357    304921.24    14.837194 
14969500    2045.7591   -717.98458    289456.36    14.940174 
14970000    1885.1042   -706.87952    306740.35    15.118364 
14970500    1912.3912   -731.98862    303108.25    15.228325 
14971000    1981.8506    -707.4868    305323.19    15.085726 
14971500    2013.4275   -702.19675    305385.63    14.992944 
14972000    1960.5613   -709.03718    299500.73    15.099871 
14972500    2077.8563   -634.99222    321425.75    14.563163 
14973000    1929.3674   -600.79399    289438.64    14.441883 
14973500    2118.6691   -588.21244    315521.57     14.32803 
14974000    1968.8937   -588.26157    292836.44    14.365658 
14974500     1945.866   -586.47627    294963.26    14.429645 
14975000    2123.4841   -575.63143    313101.49    14.408727 
14975500    1954.8576   -580.40857    292769.16    14.422396 
14976000    1988.9791   -580.93705    301627.57    14.555431 
14976500    2021.6064   -581.37515    301734.84    14.573758 
14977000    2055.8635    -608.2426    298245.73    14.778583 
14977500     2111.527   -652.27444    291749.89    15.357071 
14978000    1984.0096   -623.80196    300349.41    15.129682 
14978500    2122.4577   -694.64088     301435.4    15.619291 
14979000    2124.5953   -626.58405    302717.39    15.029937 
14979500    2097.0715   -644.42074     297012.7    14.917267 
14980000     1976.793   -641.30158    297779.37    14.793726 
14980500    1921.9005   -627.01429    296154.74    14.658978 
14981000    2052.5193   -572.28983     308205.2    14.533289 
14981500    1867.3641   -573.56045    310898.55    14.530985 
14982000    2137.4387   -595.62674    293630.51    14.654239 
14982500    2011.5394   -592.48038    299470.77     14.54482 
14983000    2024.6839   -658.37671    294699.79    14.911128 
14983500    2035.8688    -599.0422    300284.28    14.700882 
14984000    1963.4231   -643.40122    300445.07    14.979165 
14984500    2194.3521   -701.54104    298011.58    15.289761 
14985000    2054.9282   -640.61444    300049.51    15.153104 
14985500    2013.6214   -670.89615    302935.84    15.239069 
14986000    1975.4649   -695.54653    276090.49    15.716036 
14986500    2184.8681   -692.01384    303624.01    15.511438 
14987000    2005.1193   -694.56741    302311.86     15.56314 
14987500    2086.5177   -631.82032    303876.35    15.081488 
14988000    1935.9443   -663.91007    303632.78    15.167079 
14988500    1927.0812   -716.02271    302909.36    15.582544 
14989000    1783.7446   -632.78801     300819.6    15.005866 
14989500    1970.5967   -608.42137    305712.99    14.754706 
14990000    1916.0047   -648.00596    296765.01    15.175191 
14990500    2169.2096    -675.9804    303560.26    15.545361 
14991000    1867.0597   -640.95461    297654.05    15.165438 
14991500    1975.4076   -618.54605    303100.28    15.036296 
14992000    2288.3847   -706.79053    300259.83    15.738775 
14992500    2058.3172   -705.94297    294848.28    15.710339 
14993000    1874.7922   -642.75815    298255.63    15.193265 
14993500     2021.055   -633.64368    296076.63    15.011768 
14994000    1757.6981   -654.58019    293518.02    15.253146 
14994500    2032.7015   -712.63538    302747.01    15.561169 
14995000    1892.1985   -675.77668    301721.66    15.193601 
14995500    2097.0354    -585.3371    300853.68    14.555849 
14996000    1989.1989   -585.52588    299214.02    14.535268 
14996500    2088.1853   -737.87729    302604.75    15.440346 
14997000     2177.925   -745.44834    304031.23    15.519802 
14997500    2099.4423   -697.96162    303563.23    15.019425 
14998000    1995.3811   -720.67214    292927.41    15.213871 
14998500    2002.3386   -657.79622    296493.23    14.835659 
14999000    1903.0974    -654.9825    296846.02    14.762913 
14999500    2004.3889   -630.69136    297245.12    14.733954 
15000000    1994.0146   -727.01494    298370.75    15.368429 
Loop time of 74489.3 on 6 procs for 15000000 steps with 250 atoms

Performance: 34.797 ns/day, 0.690 hours/ns, 201.371 timesteps/s
99.0% CPU use with 6 MPI tasks x no OpenMP threads

MPI task timing breakdown:
Section |  min time  |  avg time  |  max time  |%varavg| %total
---------------------------------------------------------------
Pair    | 3780.1     | 3891.2     | 4030.9     | 156.7 |  5.22
Neigh   | 107.5      | 108.47     | 110.08     |   8.3 |  0.15
Comm    | 872.19     | 1016.6     | 1128.7     | 318.7 |  1.36
Output  | 482.86     | 482.89     | 482.97     |   0.2 |  0.65
Modify  | 68932      | 68938      | 68945      |   1.7 | 92.55
Other   |            | 52.05      |            |       |  0.07

Nlocal:    41.6667 ave 45 max 39 min
Histogram: 1 2 0 0 0 1 0 0 1 1
Nghost:    1108.5 ave 1111 max 1105 min
Histogram: 1 0 0 0 0 2 1 0 1 1
Neighs:    3363.5 ave 3750 max 3014 min
Histogram: 1 1 0 0 1 0 2 0 0 1

Total # of neighbors = 20181
Ave neighs/atom = 80.724
Neighbor list builds = 756805
Dangerous builds = 0

write_data	data.final.${p_id}
write_data	data.final.4
Total wall time: 20:41:34
