LAMMPS (8 Feb 2019)
Processor partition = 1
echo both

include         in.partitions
variable p_id world   0 1 2 3 4 5
include		in.temp
variable	temperature equal 2000.
variable	tempDamp equal 0.1 # approx 0.1 ps
include		in.pressure
variable	pressure equal 300000.
variable	pressureDamp equal 1.0
include 	in.seed
variable	seed world 74581 93734 128321 21934 495716 871038
units		metal
read_restart    Restart.lmp.${p_id}
read_restart    Restart.lmp.1
  restoring atom style atomic from restart
  orthogonal box = (0.131423 0.131423 0.131423) to (14.8686 14.8686 14.8686)
  2 by 1 by 3 MPI processor grid
  pair style eam/alloy stores no restart info
  250 atoms
include 	in.setup
variable	out_freq equal 500
variable	out_freq2 equal 500

neigh_modify    delay 10 every 1
include		in.al
### Argon Potential Parameters ###
pair_style 	eam/alloy
pair_coeff 	* * Al99.eam.alloy Al

timestep	0.002 # According to Frenkel and Smit is 0.001

thermo          ${out_freq}
thermo          500
thermo_style 	custom step temp pe press lx


restart 	${out_freq} Restart.lmp.${p_id} Restart2.lmp.${p_id}
restart 	500 Restart.lmp.${p_id} Restart2.lmp.${p_id}
restart 	500 Restart.lmp.1 Restart2.lmp.${p_id}
restart 	500 Restart.lmp.1 Restart2.lmp.1



timer 		timeout 23:50:00 every 1000
New timer settings: style=normal  mode=nosync  timeout=23:50:00

# NPT

include		in.dump
dump            myDump all atom ${out_freq2} dump.al.${p_id}
dump            myDump all atom 500 dump.al.${p_id}
dump            myDump all atom 500 dump.al.1
dump            myDcdDump all dcd ${out_freq2} out.${p_id}.dcd
dump            myDcdDump all dcd 500 out.${p_id}.dcd
dump            myDcdDump all dcd 500 out.1.dcd
dump_modify	myDump append yes
dump_modify     myDcdDump append yes



fix             1 all plumed plumedfile plumed.dat outfile plumed.out
fix             2 all nph iso ${pressure} ${pressure} ${pressureDamp}
fix             2 all nph iso 300000 ${pressure} ${pressureDamp}
fix             2 all nph iso 300000 300000 ${pressureDamp}
fix             2 all nph iso 300000 300000 1
Resetting global fix info from restart file:
  fix style: nph, fix ID: 2
fix             3 all temp/csvr ${temperature} ${temperature} ${tempDamp} ${seed}
fix             3 all temp/csvr 2000 ${temperature} ${tempDamp} ${seed}
fix             3 all temp/csvr 2000 2000 ${tempDamp} ${seed}
fix             3 all temp/csvr 2000 2000 0.1 ${seed}
fix             3 all temp/csvr 2000 2000 0.1 93734
fix             4 all momentum 10000 linear 1 1 1 angular

run             30000000 upto # 60 ns
All restart file global fix info was re-assigned
Neighbor list info ...
  update every 1 steps, delay 10 steps, check yes
  max neighbors/atom: 2000, page size: 100000
  master list distance cutoff = 8.28721
  ghost atom cutoff = 8.28721
  binsize = 4.1436, bins = 4 4 4
  1 neighbor lists, perpetual/occasional/extra = 1 0 0
  (1) pair eam/alloy, perpetual
      attributes: half, newton on
      pair build: half/bin/atomonly/newton
      stencil: half/bin/3d/newton
      bin: standard
Per MPI rank memory allocation (min/avg/max) = 4.005 | 4.006 | 4.006 Mbytes
Step Temp PotEng Press Lx 
14999500    2044.3945   -653.40312    306086.63    14.737155 
15000000    1875.0294   -661.36185     305129.6    14.758432 
15000500    2025.6919   -659.63546    296603.65    14.820066 
15001000    1955.6977   -650.73886    301229.78    14.729381 
15001500     2169.135    -653.4538    308735.08    14.725745 
15002000    2025.0157   -665.29643    301040.37     14.77313 
15002500    2118.5327   -659.12904    295687.25    14.692808 
15003000     2044.996   -649.30904    310937.91     14.64919 
15003500    1963.9861   -728.52489       294602    15.116662 
15004000    2053.3733   -748.28751       304803    15.254931 
15004500    1842.5294   -676.32412    307118.58    14.751747 
15005000    2034.9679   -744.64901    310146.03    15.261384 
15005500    2029.6633   -694.18595    298746.51    14.844938 
15006000     1864.623   -756.18174    286375.63    15.444389 
15006500    1918.3955   -734.37466    306909.16    15.156531 
15007000    2055.3457   -692.86619    314082.58    14.824932 
15007500    1835.0299   -691.37951    301721.35    14.868613 
15008000    1965.8646   -751.57993    297952.68    15.376028 
15008500    2101.1998   -749.32455    301512.03    15.474706 
15009000    1936.8634   -752.29244    295940.56    15.587627 
15009500    1873.2749   -637.74922    309793.68    14.666666 
15010000    1911.2375   -649.72707    307593.47    14.685441 
15010500    2022.2582   -671.70108    292889.77    14.721482 
15011000    2136.9574   -720.41616    303434.17    15.045547 
15011500    1889.2743    -682.4828    298705.13    14.755917 
15012000    2044.8974    -710.6579    304539.07     15.03759 
15012500    1971.4808   -715.00375     292446.4    15.100897 
15013000     2010.331   -708.69758    296906.08    14.956096 
15013500    2109.9823   -729.96263    283150.32    15.128377 
15014000    1976.1541   -703.35866    310042.81     14.92759 
15014500    1991.3023   -653.62127    314017.09    14.613944 
15015000    1680.3766   -711.93955    293230.62    15.034991 
15015500    1985.5356   -690.89259     304837.3    14.865853 
15016000    2045.0435   -695.28046    283581.24    14.935701 
15016500    1812.9747   -702.33446    308596.31    14.945622 
15017000    1801.0757   -718.64239    296760.09    15.032049 
15017500    2035.8368    -713.6573     302144.8    14.960111 
15018000    2015.3114   -634.45854    293351.22    14.683171 
15018500    2132.8838   -628.41921    306541.14    14.608671 
15019000    2135.6897   -653.70423    304829.84    14.729348 
15019500    2001.4403   -651.88524    305603.85     14.67152 
15020000    1980.0183   -658.91969    294609.43    14.701991 
15020500    1937.9512   -673.23442    288967.96    14.832348 
15021000    1942.6277   -651.25985    297346.99    14.756015 
15021500    2007.6713    -630.2714    304579.63    14.635953 
15022000    2098.8975   -630.70335    312876.34    14.657494 
15022500    2130.5179   -644.35209    300232.11    14.694402 
15023000    1967.3165   -642.19757    292767.92    14.722225 
15023500    1893.4836   -637.30363    303015.59    14.701357 
15024000    2088.1568   -626.90095    297658.83    14.779483 
15024500    1892.6208   -645.71346     297758.2    14.958063 
15025000    1962.0033   -684.09694    298951.09    15.184182 
15025500    1977.5422   -699.96173    299166.27    15.221933 
15026000      2136.71    -710.6394    298490.99    15.315213 
15026500    1895.8774   -730.04597    300138.73    15.488748 
15027000    2201.2267   -710.29676    300276.58    15.241855 
15027500      2187.36   -624.73303    314563.66    14.733797 
15028000    1858.7122   -643.99874    298445.02    14.899779 
15028500    2036.7955   -752.89024    290795.33    15.623601 
15029000    2099.6429   -744.17816    302156.62    15.394443 
15029500    1912.2569   -729.37781    300222.94     15.33415 
15030000    2076.1661   -746.03681     302789.3    15.482718 
15030500     2099.808   -723.43616    298418.53      15.3564 
15031000    2082.2068   -622.39818    304052.69    14.668248 
15031500    1836.7939   -609.37376    290974.92    14.709695 
15032000    1949.9543   -595.85953    302497.17    14.612619 
15032500    1945.5041   -759.80372    285683.45    15.786892 
15033000    2202.6079   -752.41636    301813.06    15.632508 
15033500    2061.8549   -762.26896    299014.76    15.682052 
15034000    2065.6913   -744.93525    307067.04    15.439563 
15034500    2189.3355   -732.93374    308599.24    15.323714 
15035000    2125.4227   -754.61131    297672.87    15.615415 
15035500     1911.231   -698.85374    300621.54    15.101712 
15036000    2059.4035   -749.00764     303637.8    15.672122 
15036500    1882.6002   -744.41413    296626.63    15.591645 
15037000    1996.0744   -723.71466    299699.02    15.478025 
15037500    1866.6575   -713.20115    297605.48    15.392833 
15038000    1910.9422   -707.80954     298963.1    15.394399 
15038500    1959.5272   -732.80384    305897.56    15.444444 
15039000    1894.1563   -732.44532    301879.59    15.538528 
15039500     2096.927   -754.69963    296372.63    15.780174 
15040000    2002.2022   -736.95149    300396.23    15.549524 
15040500    1881.8452   -750.68805    303300.24    15.713991 
15041000    2169.6031    -752.0173    305794.11    15.719661 
15041500    1783.4414   -721.18533    301721.04    15.459294 
15042000    2214.7899   -712.42068    306180.26    15.185551 
15042500    1973.8725   -706.55387    292080.04    15.550874 
15043000    1960.9177   -642.17661    295594.43    15.065536 
15043500     2002.981   -687.49289     299919.5    15.289638 
15044000    2059.7589    -655.3772    300889.12    15.095402 
15044500    1904.9735   -609.71435    299478.36    14.690249 
15045000    1961.3642   -643.04767    298071.74    14.808358 
15045500    1885.4791    -621.8855    299345.87    14.707174 
15046000    1837.5207   -708.36826    300947.49    15.230719 
15046500     2030.135   -754.16291    302613.96    15.633224 
15047000     1971.003   -672.96435    303601.53    14.977666 
15047500    2008.5162   -711.31001    297372.83     15.18348 
15048000    1935.7083   -716.45114    302951.16    15.205335 
15048500    2182.9355   -622.43721    304507.24    14.734885 
15049000     2148.536   -587.67395    310086.02    14.750347 
15049500    1983.7296   -572.12764    306290.49    14.602466 
15050000    1881.6787   -583.46273    304473.05    14.703892 
15050500    2147.6546   -650.79073    295693.06    15.205179 
15051000    2141.4894   -635.37696    301691.89    15.113717 
15051500    1827.5968   -665.28019    291326.64    15.242232 
15052000    2037.4777   -680.05857    299908.63    15.236326 
15052500    2011.4998   -622.34341     298461.6    14.966908 
15053000    1747.4918   -693.61455    293022.06    15.386929 
15053500    2250.7354    -696.1131    304128.32    15.565658 
15054000    1941.1711   -614.59339    306056.75    15.010202 
15054500    2043.9436   -700.19718    301937.86    15.460054 
15055000    2012.8089   -656.86088    307296.09    15.023199 
15055500    2098.1234   -727.58831     302082.8    15.550782 
15056000    1917.7589     -750.092    299757.08    15.610396 
15056500    1807.2845   -743.83338    298390.44    15.643734 
15057000    2025.7549   -723.17523    301649.96    15.496692 
15057500    1894.1318    -644.9548    301753.52    15.004565 
15058000    2055.8633   -700.53374    294548.77    15.454757 
15058500     1988.259   -680.55497    300481.19    15.306898 
15059000    1927.8796   -693.65396    304013.96    15.247848 
15059500    2079.9419   -700.48236    304394.07    15.370995 
15060000    1804.9408   -702.73055    302907.26    15.370389 
15060500    1958.8707    -702.1092    302534.02    15.403942 
15061000    1884.7262   -696.76756    302975.59    15.327119 
15061500    2179.5239   -697.03645    300568.66    15.114443 
15062000    1930.4499   -643.31816    300664.17    14.859729 
15062500    1893.6956   -722.95001       296311    15.308635 
15063000    1818.3861   -710.45492    299231.39     15.07161 
15063500    1868.1525   -572.93878    316962.22    14.340607 
15064000    1854.4801   -574.92219    312432.03    14.215731 
15064500    2122.5374    -596.1204       303273    14.290587 
15065000    1925.6438   -730.16828    301697.65    15.252995 
15065500     2071.169    -728.1615    301021.43    15.245815 
15066000    1910.4696   -689.83776    302134.97    15.117987 
15066500    2194.3403   -729.54806     294664.2    15.310081 
15067000    1992.4311    -649.4446    301814.72    14.864749 
15067500    1821.8071   -708.38577    306371.99    15.152783 
15068000    1979.5206   -728.24598    305746.89    15.263638 
15068500    1852.2012   -752.47947    302782.11    15.588461 
15069000    1910.3983   -754.61651    291655.14    15.710211 
15069500    2127.3942   -709.43231    296530.37    15.275161 
15070000    2028.8618   -693.91213    307869.01    15.074769 
15070500    2033.9331   -636.43356    303444.45    14.729906 
15071000    2153.3365   -685.64671    300258.91    15.028092 
15071500    1968.3774   -723.37645    302891.55    15.284191 
15072000    1974.7087   -729.10226    292487.34    15.401801 
15072500    2044.1438   -663.63368    300448.92    14.877251 
15073000    2067.6379   -631.28658    302118.61    14.774609 
15073500    2116.2098   -617.89358    305053.62    14.671871 
15074000    1837.4197   -674.65055    295243.43    15.054524 
15074500    1798.8985   -701.47654    305338.38    15.343159 
15075000    1868.2783   -654.22796    297849.48    14.903192 
15075500    1988.7101   -639.82381    300186.43    14.757756 
15076000    2214.2253    -701.1763    291459.26    15.366443 
15076500    2168.1198   -666.73203    304468.87    14.925675 
15077000    2114.9148   -651.50231    296624.79    14.793703 
15077500    1894.3563   -673.16829    296551.94    15.138203 
15078000    2152.2228    -686.8517    301145.87    15.311492 
15078500    1871.5956   -667.51259    297606.43    15.185708 
15079000    1886.3233    -657.5355    296214.54    15.197091 
15079500    1893.8064   -660.40843    296632.88    15.148858 
15080000    2142.1123   -705.16617    303743.76    15.418402 
15080500    1916.9482   -661.52393    303453.48     14.96317 
15081000    2041.6061   -640.30159    296357.54    14.805477 
15081500    1881.7651     -648.624    297264.51    14.761137 
15082000    2050.5786     -612.857    306452.63    14.512186 
15082500     1952.015   -634.66551     312633.3    14.590434 
15083000     1961.597   -738.25933    294874.02    15.282153 
15083500    2067.3189   -708.26325    300787.39    15.103307 
15084000    1946.0925   -750.23895    309223.33    15.536245 
15084500    1840.3574   -722.57752    301516.75    15.217217 
15085000      2034.64    -722.7087    299201.52    15.196484 
15085500    2033.8634   -691.74626    303873.74    14.972732 
15086000     1957.456   -759.21105    306440.34    15.464191 
15086500    2123.0627   -666.24144    301268.22    14.776247 
15087000    1975.3039   -730.43018    297117.54     15.14056 
15087500    1769.4243   -713.63496    299407.61    15.036518 
15088000    2019.3394   -720.41724    307025.43    15.194972 
15088500    2125.6208    -722.0082    307700.48    15.193895 
15089000    1981.0471    -753.0622    308871.55    15.484006 
15089500    1860.6287   -742.16274    295331.93    15.353067 
15090000    2000.9429   -715.76051    301426.52    15.329735 
15090500    2127.7995   -707.96512    299266.21    15.459556 
15091000    2101.0925   -644.02484    297081.45    15.126208 
15091500    2204.4954   -639.69119    300896.51    15.171809 
15092000    1961.1161   -689.09169    301018.13    15.455478 
15092500    1949.8977   -735.06922    297694.92    15.951648 
15093000    2105.5135   -712.35799    303673.38    15.445226 
15093500    2075.0867   -699.93767    297772.94    15.407183 
15094000    2066.2792   -729.71358    293630.82    15.626882 
15094500    2164.0872   -634.16794     307460.8    14.956447 
15095000    1818.7722   -683.26772    296360.61    15.291732 
15095500    1800.9827   -671.01854    297110.33    15.243955 
15096000    1968.3063   -671.75093    300164.61     15.18741 
15096500    1777.0272   -665.83759     293626.8     15.26322 
15097000     1883.416   -649.74642     297396.5    15.083127 
15097500    1817.6333   -695.33768     295620.6    15.437723 
15098000    2013.9034   -632.95559    306622.37    14.952812 
15098500    1954.3555    -689.2166    294875.93    15.373551 
15099000    1929.7182   -629.94961    301954.23    15.004779 
15099500    1885.2399   -702.54448    297173.42    15.368451 
15100000    2070.6698   -671.23571    304679.21     15.10197 
15100500    1885.6375   -704.36861    297475.92    15.428965 
15101000    2062.8353    -645.9424     301417.3    14.929854 
15101500    1922.8172   -679.35201     304515.1      15.2238 
15102000    2089.6886   -684.96266    298521.14    15.361827 
15102500    2047.4224   -724.11481    291140.55    15.493146 
15103000    1946.6031   -710.56163    296682.55    15.474443 
15103500    2137.1217   -632.95818    308211.84    14.851139 
15104000    1910.2453   -733.09913     300342.9    15.605018 
15104500     2274.408   -737.11937    303691.24    15.483342 
15105000    1971.0637   -748.06966    299358.93    15.658827 
15105500    2019.1284   -711.47866    301003.66    15.230014 
15106000     1970.519    -725.4689    299363.43    15.350317 
15106500     1773.036    -676.5228    295808.32    14.989844 
15107000    1830.2857   -636.97085    305850.66    14.725051 
15107500    2106.3538    -669.4967    306112.14    14.911187 
15108000    1863.4265   -699.86641    304071.93    15.033012 
15108500    2107.0169   -704.45135    299359.91    15.098771 
15109000    1881.1345   -657.89491    305955.39    14.718669 
15109500    1796.8832   -702.23986    292578.55    15.050657 
15110000    1993.5766   -633.66189    314864.16    14.594123 
15110500    2059.4926   -658.44499    314510.04    14.682693 
15111000     1969.899    -662.9512    294579.25    14.741619 
15111500    1972.5699   -671.65616    305005.15    14.767915 
15112000    2068.9749   -753.47703    290806.19    15.535976 
15112500    1928.9248   -686.11029    301492.75    14.977435 
15113000    2065.2307   -667.52689    294783.78    14.782615 
15113500    2101.7149   -659.30138    305416.41    14.706356 
15114000    1914.3117   -668.01004    300570.56    14.753107 
15114500    2004.8079   -725.22331    304299.26    15.212041 
15115000    1968.6616   -747.29185     302584.3    15.377777 
15115500    2029.7601     -748.221    304882.29    15.358052 
15116000     2084.624   -744.08749    302749.78    15.256947 
15116500    2014.1823   -715.86541    301582.47    15.092947 
15117000    2122.3907   -727.39618    291026.06    15.080965 
15117500    1955.7578   -756.50472    295078.52    15.507859 
15118000    2138.0073   -683.96245    309079.53    14.843985 
15118500    1871.1432   -693.05422    301919.83    14.880897 
15119000    2041.0732   -702.15805    290343.56    14.923456 
15119500    2010.0177   -667.20016    309831.62    14.729192 
15120000    2083.5868   -704.48305    301206.24     15.07345 
15120500    2122.0204   -712.71225    296780.11    15.081647 
15121000    2090.6598   -709.82552    306029.36    15.059768 
15121500    2126.3875   -716.32529    292822.64    15.125477 
15122000    2067.1323   -749.56324    305045.22     15.36922 
15122500    1924.1442   -728.18496       299897     15.25351 
15123000    1946.3274     -713.855    307359.48    15.027046 
15123500    1891.0258   -706.32549    288599.75     14.96659 
15124000    1935.2611   -726.21772    297247.27    15.225602 
15124500    2037.6016   -708.44125    309295.09    15.010306 
15125000    1826.0153   -761.40083    290743.35    15.543654 
15125500    1887.4395   -702.75416    305639.88    14.999854 
15126000     1989.798   -726.37901    300349.93    15.280296 
15126500    1977.7934   -661.82135    293147.34    14.647326 
15127000    1967.5721    -697.8097    304443.95    14.919289 
15127500    1971.5307   -722.12698    304519.88    15.097231 
15128000     2101.328    -759.6127    296822.27    15.521477 
15128500     1974.692   -706.53574    306065.34     15.01379 
15129000    2006.9025    -740.5371    306042.64    15.356588 
15129500    1966.2725   -748.20568    299058.11    15.342552 
15130000    1942.7464   -734.81236    305553.55    15.300994 
15130500    2110.7148   -723.89124    292247.08     15.28496 
15131000    2017.1966   -660.74512    302675.27    14.679867 
15131500    1800.1533   -708.31626    307420.97    15.000906 
15132000    1989.9247   -674.86076    294181.97    14.753943 
15132500     1898.421   -713.83533    301205.84    15.034712 
15133000    1953.8215   -719.84353     297971.1    15.126833 
15133500    2000.0776   -623.87993    319467.41    14.531171 
15134000    1965.5957      -646.69    285704.06    14.702313 
15134500    1842.0919   -656.04908    291030.27    14.749655 
15135000    1921.2908   -657.16715    299205.63    14.735567 
15135500    1918.5766   -644.69407    307861.38    14.672373 
15136000     2035.474   -618.14692    317136.41    14.654184 
15136500    2157.3386   -643.59845    303769.78    14.753547 
15137000    2103.7431    -642.0442    300268.05    14.793636 
15137500    1998.3188   -639.09054    298918.93     14.79705 
15138000    1983.4152   -625.12593    297978.18    14.784008 
15138500    1954.5463   -591.14946    304549.76    14.565745 
15139000    1954.0142   -672.42884    300535.87    15.101934 
15139500    2146.4762   -704.96188    306525.08    15.581966 
15140000    2085.8409   -693.61385    304516.24    15.592506 
15140500    1955.4428   -687.95645    302639.86    15.589132 
15141000    1940.1148   -700.02925    298011.49    15.668625 
15141500     2343.554   -704.95135    306175.99    15.578142 
15142000     1964.865   -639.91773    296370.63    15.132155 
15142500    1935.3274   -639.00054    297545.71    15.195451 
15143000    1951.4797   -642.86678    299328.56    15.186251 
15143500    2063.0293   -639.31844    298809.54    14.976962 
15144000    1993.1272   -641.74283    298076.06    14.983205 
15144500    2125.8912   -717.83822    295073.88    15.712122 
15145000    1949.0606   -644.90298    301538.26    15.009771 
15145500    1977.1824   -687.78738     299386.9    15.326466 
15146000    2052.6847   -719.40539    308489.64    15.413037 
15146500    1960.2996   -738.07124    298798.81    15.578933 
15147000    1928.2872   -704.30269    301152.01    15.322364 
15147500    1879.4868   -714.16254    291107.89    15.404095 
15148000    1715.9371   -735.59994    294571.21    15.474951 
15148500    1960.5109   -733.56419    299383.13    15.272371 
15149000    1973.1219   -734.29204    300569.25    15.268401 
15149500    2070.8787   -719.25334    308567.09    15.243203 
15150000    2220.3797   -723.39111    302822.36    15.194795 
15150500    2115.1991   -749.92823    303953.76    15.352654 
15151000    1819.3344   -694.13689    303230.58    15.045951 
15151500     1850.521   -734.14023    299521.44     15.24091 
15152000    1875.0601   -730.54928    283745.03    15.280602 
15152500    2110.9252    -716.8336    306723.98    15.038358 
15153000     2104.638   -705.47681    304715.93    15.070131 
15153500    2174.1483   -713.25961    306590.79    15.127056 
15154000    1988.4242   -714.53925    298289.28    15.102562 
15154500    1926.6294   -704.80097     309245.4    15.018778 
15155000     2072.899    -723.1042    298619.02     14.97765 
15155500    2029.3117   -715.22911    300071.21    15.011572 
15156000    2213.0214   -749.42743    311075.28    15.368445 
15156500    2086.9576   -745.25563    311837.68    15.362528 
15157000    1851.6454   -665.25879    297799.74     14.90079 
15157500    1957.3772   -699.75975    302721.57    15.095688 
15158000    1950.9538   -735.67669     293846.6     15.37309 
15158500    2019.0682   -737.17209    296871.77    15.401651 
15159000    1977.2568   -736.72954    308966.84    15.280444 
15159500    1894.0912   -739.56694    301317.94    15.266476 
15160000    1894.1256   -725.21805    301576.82    15.316118 
15160500    2068.4338   -731.14073    303471.37    15.225411 
15161000    2068.0068   -741.68304    307109.83    15.495812 
15161500    2013.7721   -723.41107    300394.71    15.416791 
15162000     2071.252   -722.00935    298612.53    15.502489 
15162500    1832.9626    -701.6862    296803.15    15.324678 
15163000     1956.116   -707.38275    299000.76    15.422473 
15163500    1946.2632   -661.03097    297189.97    15.137976 
15164000     2011.204   -671.23188    299899.72    15.220787 
15164500    2031.7036   -672.04663    297849.66    15.109737 
15165000    2143.5031   -715.22178    304524.15    15.222649 
15165500    1888.5535   -732.11179    298512.54    15.391741 
15166000     2023.233   -747.40905    300303.05    15.428251 
15166500     2214.224   -724.51621    302101.03     15.23136 
15167000    1980.7829   -716.92807    304364.19    15.283725 
15167500    1930.4323   -715.27566     302831.3    15.194904 
15168000    2069.3541   -751.52501     314222.4    15.585495 
15168500    2166.6138   -729.01715    302446.96    15.263629 
15169000    2151.3076    -755.1549    309983.24    15.659531 
15169500    1989.0667   -711.60285    303859.53    15.247553 
15170000    1834.8445   -753.54218    307988.19    15.693139 
15170500    2032.0205   -737.17804    297436.97    15.372191 
15171000      2188.68   -743.20471    291510.15    15.457943 
15171500    2082.7495    -661.4994    303904.79    15.001974 
15172000    2188.3981   -681.10039    300189.55    15.104544 
15172500     1953.041     -655.985    293575.26    14.868536 
15173000    1963.6465   -624.89841    304345.91    14.669388 
15173500    2014.0587    -647.3147    291315.29    14.701215 
15174000    2044.1337    -606.6768    313151.78    14.377342 
15174500    1845.1544   -662.20679    296807.22    14.898745 
15175000    2044.9375   -702.02677     302623.4    15.246172 
15175500    2041.7433   -649.14081    303316.33     14.90139 
15176000    1975.3107   -687.58393    301255.39    15.191346 
15176500    2186.4676   -710.65009    311468.64    15.354172 
15177000    2065.6563   -676.82683    301013.69    15.042918 
15177500    1931.9065    -707.6965    302747.26    15.162592 
15178000    2115.4616   -757.75701    314269.34    15.520199 
15178500    1929.8332   -721.22535     302620.6    15.135329 
15179000    1967.4948   -712.64798    305022.48    15.030992 
15179500    2158.1654   -715.97921    299643.08    15.066297 
15180000    1799.7487   -703.57503    303232.48    14.923881 
15180500    1954.7119   -700.19887    304271.31    14.899986 
15181000    2059.6841   -733.10787    298711.65    15.300962 
15181500    2172.9976   -740.47022    299346.09    15.368994 
15182000    1858.3845   -746.30707    299008.52    15.506485 
15182500    1917.4208   -742.58157     297918.4    15.603009 
15183000    1921.3893   -668.81548    300371.46    15.115074 
15183500    2093.5652   -749.20271    301939.81    15.762261 
15184000    1935.6234   -687.66357    305536.37    15.211994 
15184500    2099.6416   -717.26356    298740.71     15.45772 
15185000    2159.7243   -677.72032    302479.38    15.299938 
15185500    2230.9956   -649.85309    299033.87    15.039372 
15186000    1998.9116   -675.85708    290954.44    15.330107 
15186500    1970.3971   -679.33114    301755.34    15.235687 
15187000    1977.0451   -686.12986    300912.43    15.262546 
15187500    2164.4737   -629.87901    301503.03    14.679439 
15188000    2092.8981   -677.37423    298594.91    15.003743 
15188500     1932.382   -688.20102    299990.49    15.143434 
15189000    2253.2964   -675.83801    299537.75    15.212699 
15189500    2006.1258   -715.35369    300056.32    15.401427 
15190000    1828.1185   -711.74158    292472.36    15.380458 
15190500    2077.6153   -714.41966    307119.38    15.372585 
15191000    1918.4043   -668.15264    292116.15    14.957652 
15191500    2053.0152   -682.41444    291110.39    14.813255 
15192000    2061.7549   -638.96258    298468.03    14.514395 
15192500    2188.1864   -726.05176    288631.02    15.260956 
15193000    1978.3197   -706.74765    302317.04    15.109205 
15193500    1948.8651   -703.87989    301519.84    15.228161 
15194000    1965.8333   -724.88586    292814.05    15.450528 
15194500     1988.019   -708.89013    305758.46    15.307166 
15195000    1937.6445   -680.92023    297164.81    15.182001 
15195500    2056.7133    -660.6907    294398.26     15.21977 
15196000    2221.7381   -647.35848    304889.29    15.058529 
15196500    2023.1262   -698.03433    298044.22    15.454043 
15197000    2127.8574   -708.25966    294587.69    15.514847 
15197500    1863.0832   -697.05762    298349.87    15.297758 
15198000    2082.5137   -740.07454    306640.84    15.516365 
15198500     1970.279    -751.6701    302678.45    15.681347 
15199000    2032.9854   -690.52817    300470.81    15.121366 
15199500    2094.5967   -700.37744    303532.77    15.097167 
15200000    2099.3364   -744.88811    300380.69    15.454403 
15200500    1971.6514   -722.54703    296268.55    15.287763 
15201000    1923.8108   -740.37729    298491.08    15.436249 
15201500     2172.807   -740.26626    303561.31    15.495287 
15202000    1990.7247   -739.54102     299018.7    15.455739 
15202500    1727.1975   -739.78633     293222.4     15.40693 
15203000    1903.6639   -659.48434    300603.43    14.831892 
15203500      2041.63    -643.3673    301053.68    14.710741 
15204000    1958.9809   -641.59936    297463.08     14.82746 
15204500    2031.2534   -635.38462    297971.67    14.781702 
15205000      2211.76   -714.70037    302231.17    15.198966 
15205500    2055.0915    -740.9387    305208.01    15.503427 
15206000     2058.029   -743.18374    300296.42    15.472422 
15206500    1794.0047   -730.11036    299549.74    15.511707 
15207000    1860.5289   -686.71104    298384.21    15.308935 
15207500    2052.3767   -599.02555    301777.27     14.63652 
15208000    2086.9655   -682.87363    294396.22    15.035222 
15208500     2004.598   -691.08873    304727.66    15.067234 
15209000    1988.2392   -667.81768    304375.01    14.909687 
15209500    1957.3123    -698.9062    303677.81    15.085744 
15210000    1959.6998   -751.36313    300679.02    15.752867 
15210500    2016.0585   -747.90998    299247.89    15.798244 
15211000    1792.3218   -734.68563    302505.16    15.848896 
15211500    2012.4878   -742.80618    301939.74    15.859553 
15212000    2024.2388   -627.90948    301828.87    14.768883 
15212500     2126.165   -660.46171    307055.27    14.813166 
15213000    2009.9997   -653.65582    305376.09    14.804754 
15213500    2093.3269   -668.29811    293352.51    14.945012 
15214000    2072.5216   -632.94256    303055.78    14.748922 
15214500    1900.5033   -631.29131    301017.88      14.7629 
15215000    2105.9451   -652.37587     295877.5    14.806536 
15215500    2127.6731   -711.29367    297069.76    15.163077 
15216000    1862.6612   -707.82558    299281.06     15.13368 
15216500     1909.076   -699.34731     301507.5    15.054766 
15217000    1816.7871   -687.77801    301935.06    15.090412 
15217500    2053.5005   -709.14963    295527.87    15.234379 
15218000    2021.2557   -728.52885    304778.57    15.401352 
15218500    1927.2193   -726.37815    302132.39    15.340269 
15219000    2052.1738    -710.4641     304885.9    15.143931 
15219500    1973.7199   -671.61846    297838.07    14.924715 
15220000    2155.2658   -668.32285    301349.15    14.925537 
15220500    2074.9482   -638.79424    290231.73    14.828927 
15221000    1971.3739   -634.08346    300005.62    14.814728 
15221500    1971.9661   -587.88605     300308.1     14.69662 
15222000    2380.9357   -686.83257    305623.66    15.271771 
15222500    2017.3157   -649.95863    301198.79    15.147331 
15223000     2246.329   -674.50903    301994.21     15.25952 
15223500    1852.4298    -654.9217       295566     15.00994 
15224000    1983.3689   -579.86328    301275.19    14.523599 
15224500    2118.2644   -581.02027    298667.34    14.488841 
15225000     1919.531   -577.06316    301072.37    14.506015 
15225500    2016.5277     -662.041    299759.62    14.999761 
15226000    2158.3994   -620.80849    309436.05     14.59489 
15226500    1987.3776   -678.72394    300712.04    14.965392 
15227000    2073.8575   -627.20478    307649.19    14.653869 
15227500    1970.7327   -709.70307    299785.94    15.146201 
15228000    2072.3343   -648.87832     302842.4    14.831051 
15228500     1950.215   -682.09822    297343.66    15.073535 
15229000    2051.3454   -655.94149     299113.3    14.870249 
15229500    1905.8346    -726.6016    301253.29    15.371881 
15230000    1887.9653   -744.44531    310401.99    15.313777 
15230500    1991.7064   -749.16713    295180.41    15.358087 
15231000    1908.6836   -756.47095    288176.82     15.36262 
15231500    1875.6918   -700.80389    309284.18    15.027679 
15232000    2096.0304   -757.43656    276374.71    15.419799 
15232500    1994.5373   -752.18323    286516.36    15.381497 
15233000    1944.5712   -706.39993    309782.35    15.030779 
15233500    1918.5632   -722.51146    302322.48    14.971881 
15234000    2056.2824   -726.73554    299444.13    15.041736 
15234500    2026.0326   -734.48104       293350    15.119626 
15235000    2063.6971   -730.57121     289398.4    14.958314 
15235500    2065.3343   -730.74327    296179.75    15.177504 
15236000    2087.0117    -733.9958    300853.42    15.292344 
15236500     2035.624   -749.97552     304496.6    15.417529 
15237000      2249.14   -725.36906    312920.93    15.181687 
15237500    1944.2494   -701.76942    298922.66    15.416085 
15238000    1978.0529   -719.02037    302266.92    15.441042 
15238500    1813.7213   -706.45425    301746.06     15.25499 
15239000    2208.6012   -753.54686    300809.49    15.638787 
15239500    1977.8379   -754.38405    298343.67    15.621942 
15240000    1847.2715    -752.8572    304137.79    15.685669 
15240500     2130.361   -757.43134    307924.13    15.495001 
15241000    1917.1383    -675.7139    297550.84    14.874436 
15241500     2317.121   -663.51074    301195.02    14.779183 
15242000    2019.1707   -706.47421       301802    15.169883 
15242500     1983.355   -729.72756    293978.35    15.283536 
15243000    2046.9032   -641.26344    297892.82    14.624314 
15243500    2046.3035   -635.25911    297153.05    14.686526 
15244000    1933.0141   -683.09314    295971.71    15.299759 
15244500    1846.3871   -696.73125    302737.81    15.379363 
15245000    1855.1228   -657.54388    300428.91    15.016248 
15245500    2025.3654   -577.70587    301051.09    14.513454 
15246000    1945.1461    -619.6125    301160.81     14.82661 
15246500    2091.7666   -636.52689    304527.69    15.023394 
15247000    1900.0845    -703.9439    298154.16    15.444183 
15247500    1957.3591   -661.70526    298514.23    15.032548 
15248000    2096.8746   -634.39007    304039.03     14.72244 
15248500    1951.7666   -706.33449    291885.23    15.255538 
15249000    2066.9653   -707.06564    298729.63    15.417747 
15249500    1967.7161   -657.99975    304794.48     14.97535 
15250000    1818.1235   -580.02492    297587.87    14.502451 
15250500    2204.8539   -586.03073    292428.65    14.454335 
15251000    2029.2074   -609.96115    299181.73    14.635056 
15251500    1876.3918   -681.48731    293597.07    15.336041 
15252000    2016.2707   -676.60748    301782.85    15.280416 
15252500    2074.0123   -645.29929    299780.44    15.011409 
15253000    2178.4149   -743.70506    301039.42    15.717588 
15253500    1828.3059   -701.02082    298818.31    15.324912 
15254000    2080.2361   -702.91546    298354.73    15.204482 
15254500    2234.9983   -736.24155    298562.53    15.546585 
15255000    2141.0188   -680.25723     305554.8     15.19076 
15255500    1895.9097   -753.33216    297484.36       15.701 
15256000    1999.9291   -718.97723    300442.42    15.293418 
15256500    1906.8834   -760.06202    296549.04    15.672947 
15257000    2058.9394   -759.36061    293692.41    15.641483 
15257500     2081.411   -711.77992    297474.87    15.155862 
15258000    1978.1928    -719.4866    296173.44    15.307047 
15258500    2198.1773   -744.35789    282412.19    15.390003 
15259000    2065.2562   -723.60958    303089.68    15.220873 
15259500    2138.2753   -727.29661    300314.82     15.20064 
15260000    2000.2569   -748.48417    292069.71    15.375391 
15260500    2000.6151   -737.94959    292816.09    15.303758 
15261000    1883.1944   -738.21104    298104.89    15.362619 
15261500    2153.1011    -731.7757    306861.88    15.289615 
15262000    2028.6928   -696.00657     305341.8    14.919297 
15262500    1831.4261   -646.05745    305609.67    14.676805 
15263000     2051.334   -750.00019    307328.77    15.366238 
15263500    1948.3662   -745.13992    304694.16    15.293539 
15264000    1961.0735   -753.24283    307554.17    15.408002 
15264500    2119.7021   -731.99371    305828.41    15.232394 
15265000    2041.5144   -726.39712    302802.19    15.326641 
15265500    1954.5753   -701.88882    283050.41     15.19724 
15266000    2030.6116   -722.97125    296133.95    15.238211 
15266500    2097.2953   -627.77354    302628.47     14.53071 
15267000    2049.8043   -619.44158    300860.21    14.476875 
15267500    1916.1017   -614.72365    299220.49    14.492507 
15268000    1964.0184   -704.62629    300627.19    15.118929 
15268500    1950.5203   -655.56865    298659.96    14.837429 
15269000    1965.5533    -642.6323    299648.69    14.894891 
15269500    1929.0982   -665.87516    296953.96    15.149621 
15270000    2045.4604   -676.64754    300079.74    15.281903 
15270500    2183.1192   -625.74613    309777.59    14.919509 
15271000    2166.0823    -680.2364    290380.49     15.40724 
15271500    2058.8499   -595.42254    294703.38    14.675434 
15272000    1924.5292    -585.6788    296214.76    14.570985 
15272500    1847.6377   -585.19069    291411.13    14.620209 
15273000    1843.2743   -601.64796    287184.37     14.62142 
15273500    1908.1404    -676.6714    299194.82    15.286822 
15274000    1992.7877   -693.91173    304973.44    15.531181 
15274500    1964.9735   -693.98943    303856.78    15.604205 
15275000    1989.3716   -707.28844    302541.46    15.661928 
15275500    1995.0593   -683.01342    297396.73    15.418274 
15276000    1943.9301   -679.74049    297903.85      15.3122 
15276500    2032.7177   -680.35052    302806.02    15.191324 
15277000    2008.9587   -697.48179    300766.66    15.195959 
15277500    1921.0588   -568.71601    307423.56    14.510548 
15278000    1729.5491   -661.33561    304445.69     15.23454 
15278500    1855.8314   -648.23905    299013.15    15.208257 
15279000    2110.3543   -560.48383     324916.8    14.492728 
15279500    1965.6318   -613.02386    297512.59    14.725905 
15280000    1915.6138   -626.02522     292575.4    14.732072 
15280500    1894.1114   -726.16608    304200.09    15.390474 
15281000    1971.1469   -732.54467    305552.55    15.601253 
15281500    1856.8692   -738.77111     301031.1    15.552022 
15282000    1759.2042      -714.63    292189.63    15.310115 
15282500    1980.4505   -724.24331    299877.05     15.30881 
15283000    1971.3281   -730.91242    297863.49    15.366292 
15283500    1931.3515   -750.03984    299276.83     15.43118 
15284000    1893.0882   -688.84104    300346.85    14.999381 
15284500    2104.4321   -707.23553    298470.22    15.193113 
15285000    2081.2067   -671.97489    301741.58    15.002727 
15285500    2038.6875   -586.01957    295189.23    14.574562 
15286000     1969.169   -591.33369    294579.55    14.640172 
15286500    1942.3085   -618.56896    306327.18    14.727497 
15287000    1869.2312   -627.79573    297673.89    14.814588 
15287500    2040.2845    -642.0423    305474.52    14.917569 
15288000    2080.5691   -652.92888     303023.4    15.152587 
15288500    2028.5249   -634.39516    302800.59    15.014626 
15289000     1966.683   -704.12933    292712.14    15.517111 
15289500    1907.0035   -715.34284    301399.24    15.519365 
15290000    2115.5256   -745.78367    303192.22    15.739862 
15290500      1963.04   -728.65512    302084.04    15.488261 
15291000    2018.5538   -713.15457    306489.59    15.400971 
15291500    2062.7599   -682.08564    303290.78     15.29082 
15292000    2244.9176   -643.45763    302995.44    15.084406 
15292500    1994.8546   -686.91069    296413.36    15.400264 
15293000    2039.5148    -636.8186    306132.42    15.062799 
15293500     2018.168   -687.20335     301532.1    15.355251 
15294000    2013.1878   -660.47118    302093.73    14.996413 
15294500    2122.0044   -741.04899    297937.53    15.632589 
15295000    2022.2398    -700.5836    305570.42    15.253206 
15295500    2008.2804    -707.2976    294523.06    15.588703 
15296000    2223.2828   -663.86789    299980.43    15.189496 
15296500    2035.7354   -673.58599    298625.79    15.200956 
15297000     1967.834   -695.53412    299930.49    15.371755 
15297500    2217.5386   -687.48756    302820.31    15.332533 
15298000    2046.2003   -667.02933    301775.19    15.140895 
15298500    2055.9548   -678.69273    300574.37    15.265769 
15299000    2123.2395   -652.11696    297728.34    15.190178 
15299500    2043.1031    -677.7421    302840.02    15.268186 
15300000     2061.061   -660.65747     302110.3    15.114087 
15300500    1911.7863   -704.71754    298888.22    15.475242 
15301000    1849.0034   -695.85145    298992.62    15.391671 
15301500     2091.069   -664.76905    298803.47    15.375976 
15302000      2068.08   -639.81939    298498.16    15.204678 
15302500    1934.6477   -621.00611    306718.95    14.983051 
15303000    2098.9743   -714.84708     294876.2     15.75895 
15303500    2073.0615   -657.56884    301554.82    15.106548 
15304000    2110.3511   -649.27408    300357.23    15.195601 
15304500    1905.2059   -635.41651    298127.15    15.021153 
15305000    1925.9938   -632.88207    302898.08    15.102201 
15305500    1972.4665   -665.38681    303651.46    15.302391 
15306000    2028.3561   -708.15158    301314.29    15.581814 
15306500    2119.3518   -668.16968    301280.74    15.179268 
15307000    1996.7938   -645.51063    293675.97    15.186839 
15307500    2035.0801   -653.93745    297937.66    15.182449 
15308000    1965.6764   -685.51913    294866.58    15.353608 
15308500    2115.4297   -704.93819    301512.35    15.398293 
15309000    2108.7313    -677.9898    302764.85    15.309353 
15309500     1770.972   -633.67783    302815.95    15.056722 
15310000    2092.2205    -688.5289    301250.27    15.361472 
15310500    1891.7447   -648.10511     299335.3    15.227168 
15311000    2146.7101   -640.95849    301614.51    15.244942 
15311500    2084.6035   -637.52493    300926.33    15.136453 
15312000    1976.4954   -640.42238    298949.01    15.126641 
15312500    2000.2351   -666.82128    299722.27    15.327509 
15313000    2127.0619   -729.44875    298542.19    15.806214 
15313500    1933.1061   -618.34494    305325.38    14.995308 
15314000    2059.6902   -665.71528    298080.04    15.355804 
15314500    1930.7452   -654.70193    297987.75    15.225503 
15315000     1886.659   -705.37622    302694.33    15.615475 
15315500    2151.4037   -684.63559    299745.24    15.390223 
15316000    1936.1985   -639.15885     295482.2    15.326259 
15316500    1976.5173   -637.94795    300391.97    15.104582 
15317000     1968.908   -650.69105    304581.55    15.109205 
15317500    1975.2917   -740.11923     304163.4    15.884966 
15318000    2298.4121   -652.82456    302659.93    15.171405 
15318500    1896.8842   -640.63013    294355.06    15.184223 
15319000    2087.7121   -636.67375    298492.96    15.208002 
15319500    1990.8945   -637.37558    297441.35     15.11043 
15320000    1940.0609    -719.1941    296714.04      15.8982 
15320500    2088.1805   -650.11605    305071.89     15.27676 
15321000    2215.3343   -670.49182    301271.27    15.393627 
15321500    2189.7487   -627.99305    301427.74    15.070273 
15322000    1939.7855   -627.79675     304089.8    15.226589 
15322500    2037.2578   -592.03617    304364.52    14.710481 
15323000    2073.7456   -663.91882    297263.22    15.217454 
15323500    1959.3227   -636.43546    297957.53    15.234844 
15324000      2144.91   -637.81973    300685.51    15.139643 
15324500    2040.7922   -634.27469    302007.99    15.101959 
15325000    2090.0364   -694.83051    301152.52    15.406519 
15325500    1920.6128   -701.98537    297472.36    15.625825 
15326000    1862.1957   -654.15045    298168.97    15.201502 
15326500    1823.4899   -657.82268    301107.75    15.246869 
15327000    2008.2539   -674.30739     302134.7    15.235762 
15327500    1959.1329   -592.38714     295856.7    14.661272 
15328000    1861.1003   -647.29198    298739.83    15.130312 
15328500    2092.4969   -715.43629    288533.74    15.788529 
15329000    2076.7942   -741.74703    303135.02    15.549781 
15329500    2177.3338   -737.11718    307047.46    15.462825 
15330000     1890.961   -743.28218    301478.16    15.412073 
15330500    2089.9075   -721.71456    304182.63    15.233219 
15331000    1866.9033   -741.81712    301544.22    15.289631 
15331500    1974.9481   -727.02616    302706.88    15.237383 
15332000    1991.4896   -727.69744    302447.08    15.193394 
15332500     1987.673   -736.71163    304875.69     15.16176 
15333000    1753.9387   -640.44839    300653.44    14.562226 
15333500     2113.255   -661.91532    293871.58     14.58386 
15334000    1988.4373   -701.91749    289417.04    14.882888 
15334500    2033.1174   -669.28237    286661.71    14.596008 
15335000    1897.5772   -681.18912     302842.5    14.719899 
15335500     1965.375    -658.8282    302939.21     14.56427 
15336000     2049.304   -684.01093    304103.07      14.6702 
15336500    1889.1611   -641.05506    302566.74    14.602261 
15337000    2185.3461    -705.3241    311729.88    14.876681 
15337500    1997.7652    -688.2368    297622.48    14.911039 
15338000    1911.6295   -695.66831    307854.98    14.881388 
15338500    2161.0442    -706.6889    305187.58    14.919858 
15339000    1783.4367   -689.10576    301481.45    14.832886 
15339500    1878.0516   -631.96544    308983.16    14.518872 
15340000    2016.1559   -676.87011    304258.24      14.7495 
15340500    2086.4683   -672.79292    295511.48    14.767494 
15341000    1972.4722   -728.80471    296744.16    15.180889 
15341500    1861.1664   -703.87115    299414.74    14.978392 
15342000    2111.1832   -666.79986    302884.89     14.70698 
15342500    2004.9803   -656.70338    278380.02    14.749265 
15343000    2090.4065   -673.45865    296709.18    14.831677 
15343500    1818.8894   -722.96837    301101.11    15.288908 
15344000    2029.8342   -730.74562    307630.61    15.313596 
15344500    2041.1341   -712.36472    305922.55    15.245498 
15345000    2033.4544   -732.41833    309608.36     15.30632 
15345500    1854.5711   -758.62386    286865.06    15.548558 
15346000    2038.6775   -734.53537     303199.7    15.218185 
15346500    2035.2895     -747.547    291298.12    15.419777 
15347000    1976.1591   -704.14713    306288.89    15.068504 
15347500    1953.6061   -699.68481    304038.87     14.88538 
15348000    2122.3006   -714.25277    313444.44    14.989624 
15348500    1851.6867   -747.71469    306428.69    15.331375 
15349000    1932.1881   -744.80089    312210.86    15.348481 
15349500    2011.0206    -750.3523    295376.22    15.360668 
15350000    1798.9169   -746.22185    289013.61    15.403158 
15350500    1973.6993   -740.45889    303856.96    15.237512 
15351000    2047.6246   -737.71734    310814.15    15.283872 
15351500    2195.0701   -760.56039    303824.89    15.608577 
15352000    2130.2053   -739.72449    307839.12      15.2448 
15352500    1906.2121   -629.17012    298112.06    14.437749 
15353000    1921.7715    -612.6157    306878.91    14.393217 
15353500    2082.6161   -632.86254    301117.87     14.38641 
15354000    1767.3187   -628.58109    290517.83     14.42365 
15354500    2060.9492   -625.95119    298827.01    14.415265 
15355000    1904.7702   -639.62163    295886.79    14.620963 
15355500    1945.5799   -643.85914    305693.47    14.638561 
15356000    2000.2328   -627.48388    301962.16    14.612491 
15356500    1955.8202   -686.39747    305450.22    15.111022 
15357000    2049.6733   -695.04938    303771.18    15.113133 
15357500     1873.556   -648.53358    302400.48    14.644129 
15358000    2024.0507   -617.92137     308476.2    14.431749 
15358500    1949.2466   -635.96689    293636.93    14.395425 
15359000    1935.4533   -636.54116    292694.68    14.394984 
15359500    1876.8191   -626.12406    306681.38    14.415531 
15360000    2008.8391   -603.89181     288397.3    14.438979 
15360500     1928.198   -575.61182    325559.16    14.396935 
15361000    2012.7916   -583.20428    298301.15    14.442422 
15361500    2202.6645   -587.00121    306299.63    14.584454 
15362000    2126.9193   -587.63376    297918.95    14.538113 
15362500    1986.5918    -580.3926    307918.18    14.471906 
15363000    1814.6838   -637.26188     299307.1    14.891498 
15363500    1959.4648   -644.94871     301533.7    14.905003 
15364000    2108.7577   -664.81658    297868.35    14.976328 
15364500    1909.3703   -710.76045    297307.85     15.45959 
15365000    1784.5533   -640.32017    303459.99    15.002485 
15365500    2036.9876   -640.89873    297511.55    14.727131 
15366000    1888.6844   -642.30929    292411.91    14.785726 
15366500    2098.5817   -594.40113    293182.38    14.435857 
15367000    2023.0822    -582.2787    291803.55    14.448931 
15367500    1763.2681   -578.62141    302985.79     14.41319 
15368000    2007.3701   -649.91271    293546.63    14.809053 
15368500    2013.2944   -628.70646    300046.17    14.775295 
15369000     1893.176   -659.83141    294256.72    15.212713 
15369500    1986.4806   -684.99011    299546.62    15.324514 
15370000    2043.3018   -681.91692    303964.55    15.270791 
15370500    2028.8235    -652.8417    300825.81    14.828685 
15371000    2059.2964   -579.43513    305694.62    14.391749 
15371500    1936.9292   -578.95915    304940.12    14.357104 
15372000    1817.2056    -607.0342    295931.99    14.422773 
15372500    2009.8831   -631.23927    296102.17    14.523384 
15373000    1916.5938   -664.31479    301602.52    14.785316 
15373500    2084.2203   -678.65885    298984.04    15.011827 
15374000    1985.3397   -610.23107    306152.17     14.52298 
15374500    2049.5522   -611.74681    307439.67    14.621601 
15375000    2032.7925   -695.69304    300181.03    15.381066 
15375500    2040.6244   -656.49706     301373.8    15.134989 
15376000    2018.6014   -647.32972    300275.39    15.096763 
15376500    1949.0913   -727.57949     295116.6    15.610157 
15377000    2109.9836    -681.5083    307779.79    15.107711 
15377500    2036.0135   -687.74889     302552.4    15.337663 
15378000    2009.2324    -644.4915    306434.92    15.042122 
15378500    1960.9467   -664.22892    296947.35    15.169827 
15379000    1927.7616   -653.32222    296334.71    14.938837 
15379500     2006.493   -674.22254    302245.09    15.155427 
15380000    2080.9318   -676.79362    300414.44    15.202478 
15380500    2090.5555   -661.30371    299483.34     15.13161 
15381000    1950.2473    -705.6461    296657.91    15.481308 
15381500    1881.9311   -693.14306    301056.91     15.35226 
15382000    2022.2773   -658.36411    294874.44    15.282464 
15382500    2010.1848   -705.77693    303485.39    15.534368 
15383000    2031.9049   -643.74649    304201.04    15.098873 
15383500    1944.7952   -689.21184    297399.34    15.308455 
15384000    1931.6096    -615.9233    307488.12    14.938855 
15384500    1918.8532   -682.71046    299529.15     15.66383 
15385000    1998.6268   -635.06574    298406.83    15.130487 
15385500    2066.2399    -671.2086    303882.27    15.480206 
15386000    1963.9251    -678.8557    301849.87    15.596839 
15386500    2095.5531   -640.70713    297626.72    15.199145 
15387000    2074.6768   -633.74359    299012.99    15.244716 
15387500    1992.6948    -647.0699    301052.69     15.24869 
15388000     2134.862   -646.57631    299758.22    15.309102 
15388500    2130.7256   -658.97224    297724.77    15.433139 
15389000    2070.3041   -637.99034    299337.78     15.12887 
15389500    2098.6923   -707.66097    290955.97     15.81115 
15390000    2226.8225   -699.47647    301513.27    15.677847 
15390500    2078.2281    -690.9203    299516.91    15.514072 
15391000    2132.5965   -694.00004    296399.35    15.691715 
15391500     2019.083   -674.11167    300302.97    15.366707 
15392000    1913.9251   -676.24341    301652.45    15.342098 
15392500    1943.3877   -681.90321    302554.94    15.192015 
15393000    2029.7874   -681.22152     303281.5    15.140756 
15393500      2073.04   -705.93319    295883.63    15.198323 
15394000     2077.094   -615.94178    316396.17    14.630873 
15394500    1997.1394   -663.12152     298884.3    14.982741 
15395000     2051.838   -720.47805    304042.74    15.535935 
15395500    1913.6459   -738.78135     297543.5    15.650779 
15396000    1840.5395   -749.91304    299349.15      15.8087 
15396500    2063.7379   -753.99386    301797.65    15.662942 
15397000    1836.2394   -726.03027    295404.39    15.449606 
15397500    2096.5787   -733.43621    306708.49    15.380417 
15398000    2152.5832   -700.38681    300582.83    15.176522 
15398500    2101.4907   -691.62983    305456.98    15.099183 
15399000    1771.7848   -721.49412     297345.7    15.293579 
15399500    1981.7537   -719.39234    303533.15    15.278942 
15400000    1935.1159   -650.39396    295095.82    14.813847 
15400500    2107.5817   -664.51604    298999.44    14.902844 
15401000    2077.7066   -696.30022    301916.68    15.084164 
15401500    1961.1373   -710.09004    291960.14     15.21852 
15402000    2048.3444   -715.34515    297716.07    15.268911 
15402500    1916.5329     -706.124    297736.81    15.183756 
15403000    1918.3027   -704.74866    304549.02    15.088103 
15403500    2181.5945   -701.89697    300263.85    15.182441 
15404000    1964.7694   -711.09716    293739.95    15.179581 
15404500    1838.1618   -700.74693    300424.61    15.039099 
15405000    1915.6894   -692.85822    303146.71    14.991623 
15405500    2127.9732   -733.47523    297822.37    15.417992 
15406000     1825.588   -731.99097    306258.59      15.4304 
15406500    1991.6998   -756.30194    300596.35    15.737213 
15407000    2244.7073   -696.98836    308688.63    15.157538 
15407500    2195.2384   -712.79835    301401.21    15.430798 
15408000     2013.453   -690.23263     304694.9    15.478239 
15408500    1936.0795   -724.67869    300103.02    15.917772 
15409000    2068.2464   -718.97303    302082.37    15.738954 
15409500    2182.0215     -600.153    307049.47    14.940338 
15410000    2009.0217   -667.76013    299188.75    15.455571 
15410500    1952.4482   -653.79617    298043.96    15.165301 
15411000     1935.247   -599.84956    301238.36    14.876756 
15411500    1946.6536   -659.44042    297130.26    15.336004 
15412000    2038.3055   -700.32429    301837.73    15.626824 
15412500     1822.393   -707.30892    299804.83    15.545965 
15413000     2073.521   -697.38127    297868.48     15.62265 
15413500    2014.4849     -636.744    295564.95    15.227854 
15414000    2091.2773   -646.27707    293771.18    15.373898 
15414500    1950.7566   -605.28175    294935.09    14.900257 
15415000    2021.3396   -681.73625    302248.55    15.574489 
15415500    1921.8841   -680.61822     299525.9    15.521277 
15416000     2180.134   -620.71919    297371.36    15.002533 
15416500     1931.139   -690.29573    297164.83    15.639905 
15417000    1825.7468   -733.91031    299523.91    15.826868 
15417500    2024.7716   -736.36013    305858.26    15.811856 
15418000    2149.8748   -705.82089    307488.68    15.637944 
15418500    1959.2384   -670.10899    302428.58     15.36152 
15419000    2012.7034   -661.60483    295785.34    15.414417 
15419500    2021.0088   -676.88792    300745.95     15.44416 
15420000    2022.0609    -667.2668    298756.66    15.320638 
15420500    1969.3929   -629.24988    296463.81    15.166462 
15421000    2065.5899    -667.8319     298258.2    15.237362 
15421500    1957.5496   -713.43257    297797.24     15.56921 
15422000    2042.6816   -633.47002    300110.01    15.057482 
15422500    2024.7817   -636.82868    295979.33    15.170805 
15423000    1928.8783    -721.7744    296152.08     15.68267 
15423500    2060.6477    -622.5625    309024.85     14.87759 
15424000     1958.712   -691.52835    294735.72     15.43328 
15424500    2060.8764    -697.8991    300948.82    15.375736 
15425000    2060.7364   -619.11209    304474.16     14.87417 
15425500    2014.9505   -666.89644     297144.1    15.154448 
15426000    2199.8282   -655.75888    300015.15    15.095689 
15426500    2258.6511   -671.64765    299688.64    15.094156 
15427000    1948.5214   -665.61028    299773.65    15.083523 
15427500    2046.6337   -668.77432    299903.01    14.981671 
15428000     2059.624   -655.97841    300265.15    14.715601 
15428500    2211.8405   -719.32331    305693.29    15.120988 
15429000    2087.7432   -694.14748    300002.01    14.940113 
15429500    2034.5214   -660.15029    297913.45    14.755538 
15430000     1866.273   -664.11947    299349.69    14.766724 
15430500    2107.3891   -678.85822    295407.32    14.770301 
15431000    2087.4602   -672.71456    304473.16    14.656676 
15431500    2066.4235   -644.21638    304120.68    14.514866 
15432000    2187.4906   -663.27204    306391.37    14.544166 
15432500     1920.905   -715.36054    300836.98    14.952092 
15433000    2155.8309    -649.2228    315140.71    14.508753 
15433500    1964.4337   -663.26032    304388.61    14.554968 
15434000     1910.885   -695.75844    296416.34    14.743486 
15434500    2050.9834   -722.33431    294875.37    14.898051 
15435000    2118.3985   -708.56298    309909.89    14.821867 
15435500     1984.815   -716.69093    304163.86    14.924523 
15436000    1803.5422   -728.55864    287191.11    14.975076 
15436500    1955.8273   -713.10085    303098.09    14.875511 
15437000    2050.7924   -615.71627    301354.91     14.38547 
15437500    1996.9405   -651.56577    303071.43    14.503164 
15438000    2083.4762   -725.81012    297549.45    14.938501 
15438500    1938.0373   -720.56992    301196.42    14.879864 
15439000    1868.8861   -697.29434    295798.76    14.731119 
15439500    1948.5394   -714.85974    302541.35    14.924132 
15440000    1979.5856   -721.48441    290992.89    14.906312 
15440500    1867.8303   -675.81578    306854.94    14.571365 
15441000    2110.1967   -701.74243    304780.44    14.807982 
15441500    1965.7426   -696.71571    305228.12    14.849177 
15442000    1993.5836    -649.5598     302875.8     14.54474 
15442500    1950.6853   -681.62265     292574.4    14.702504 
15443000     2116.739    -647.0838    289066.41    14.544516 
15443500    1907.7219   -724.37257    313039.43    15.106172 
15444000    2069.8538   -714.28702    299261.04     15.08299 
15444500    2012.6862   -742.40502     297868.9    15.402924 
15445000    2004.4599   -738.60467    293659.95    15.411548 
15445500    1785.4314   -724.41494    302919.41    15.239819 
15446000    1956.1558   -738.70769     303036.7    15.505513 
15446500    1922.0493   -755.78272    300938.15     15.63253 
15447000    1914.3766   -721.97292    303388.88    15.233993 
15447500    1978.1807   -742.58042     293162.4    15.369076 
15448000    1857.9915   -754.96455    299494.75    15.361571 
15448500     2005.947    -742.1711    292930.27    15.337912 
15449000    2097.8686   -749.62479    314084.16    15.508195 
15449500    2030.3735   -735.42824    306756.27    15.378789 
15450000    2082.6364   -684.90561    306345.37    15.023803 
15450500    1788.1541   -719.07653    303150.46    15.351443 
15451000    1878.3415   -690.34827    300527.37     15.22321 
15451500    2061.1106   -684.62666    297491.52    15.231952 
15452000     2107.436   -680.02816     298971.8    15.199889 
15452500    1874.9409   -642.69126    300829.88    14.940393 
15453000    1940.4423   -663.59863    296822.59    14.988845 
15453500    2006.9017   -692.60735    301584.15     15.28465 
15454000      1894.54   -665.66979    299702.27    14.991307 
15454500     2017.832   -660.86886    302007.39     14.99721 
15455000    2402.2708    -756.0346    303172.73    15.676465 
15455500    1879.4322   -686.95545    301657.14    15.154118 
15456000    1883.7275   -628.64536    307727.11    14.645013 
15456500    1969.7384   -640.49481    297723.63    14.846842 
15457000    2121.8828   -708.19381    292334.78     15.53175 
15457500    1789.2143   -709.10172    298828.17    15.406178 
15458000    1878.0866   -728.47551    298042.23    15.508188 
15458500    2081.4766   -706.92677    303612.74    15.321904 
15459000    1891.4373   -666.59654    298283.39    15.162414 
15459500    2064.4114   -709.55357     295584.8    15.451443 
15460000    1916.9972   -716.29714    297307.02    15.416931 
15460500    2238.3592   -708.23102    303542.21    15.345282 
15461000    2059.1729   -735.82221    299085.51     15.62315 
15461500    1929.4215     -734.478    299439.71    15.547701 
15462000    2045.1942   -732.65823    302971.94    15.466605 
15462500    2189.3348   -743.69944    303029.77    15.525144 
15463000    2019.5197   -747.14016    303352.25    15.528702 
15463500    2016.5393   -758.32534    301379.75    15.705731 
15464000    1829.1722    -735.3476    302780.26    15.542118 
15464500    2257.2285   -747.36923    299627.99    15.551431 
15465000    1765.4311   -743.60884    296158.18    15.631628 
15465500    1927.5903   -693.79599    304750.37    15.139035 
15466000    2200.9592    -762.6254    281728.54    15.786942 
15466500    1951.7045   -740.92145    299586.38    15.492052 
15467000    1997.8771    -755.7422     297536.4    15.670286 
15467500    2173.6606   -695.98517    311494.05    15.031123 
15468000    1902.1738   -588.66354    288939.19     14.50821 
15468500      1920.91    -693.3369    306632.29     15.21608 
15469000    1904.8032   -696.45983    302527.67    15.282092 
15469500    1960.9458   -695.34814    288215.94    15.426452 
15470000    1953.4452   -660.28793    300790.26    15.113574 
15470500    2120.7926   -690.24811    304274.34    15.254501 
15471000    1907.2046   -626.68006    301936.96    14.736448 
15471500    2184.7364   -681.37151    301512.85    15.059541 
15472000    2027.5992   -688.94708    300045.56    14.989464 
15472500    2113.1069   -685.03338    302267.24    15.105613 
15473000    1995.9791   -673.09636    298556.63    14.977719 
15473500    1818.8235   -678.32528    296815.45    15.046113 
15474000    2125.5888   -642.03342    306165.94    14.632499 
15474500    1990.9492   -631.85493    297447.88    14.574757 
15475000    2022.0827   -620.60493    296435.74    14.503938 
15475500    2026.8548   -596.00075    295454.51    14.380188 
15476000    2026.2449     -595.062    300113.87    14.421988 
15476500    2137.0121   -580.11928    314537.39    14.345336 
15477000    1900.0562   -577.84931    303736.86     14.37702 
15477500    2137.3919   -579.21638    308474.63    14.329146 
15478000    2048.2288   -585.11532    291982.85    14.416518 
15478500    1850.4543   -582.11377    298188.84    14.474992 
15479000    2050.1055   -596.57146    296520.41    14.534753 
15479500    2057.1116   -606.96412    300966.32    14.576782 
15480000    1963.7801   -591.54508     296653.2    14.388467 
15480500    1940.4537    -637.3239     292465.3    14.588171 
15481000    2039.1122   -639.96053    299654.78    14.780301 
15481500    1862.2197   -635.52218    301461.87    14.716563 
15482000    1781.2752   -663.71009    297343.82    14.957836 
15482500    1987.4791    -736.0445    290575.58    15.436998 
15483000    1966.3059   -736.06808    301516.05    15.251544 
15483500    1991.9825   -700.98982    300728.72    14.938213 
15484000    2188.1416    -685.6916    308944.47    14.761757 
15484500    2089.0742   -652.73668    277081.27    14.668459 
15485000    2058.9221   -670.19069    301646.71     14.67212 
15485500    2097.4071    -670.5235    296081.21    14.767733 
15486000    2057.7349   -684.91666    288466.25    14.790213 
15486500    2188.6779   -673.72574    304743.71     14.65637 
15487000      2099.38   -657.34578    295638.66     14.58323 
15487500    1871.9014   -725.14558    295871.79    14.990558 
15488000     1853.065   -723.87396    297344.78    14.955487 
15488500    2177.3028   -718.72189    303610.22    14.859657 
15489000    1997.7582   -706.92308    302318.92    14.796773 
15489500    2044.4722   -684.43049    298986.03    14.671384 
15490000     1979.063   -728.03506    291643.02    15.001178 
15490500    2074.6331   -723.96309     302976.1    14.971752 
15491000    1877.3522   -650.41495    301683.96    14.545598 
15491500    2186.7616    -723.5935    287703.17    14.933009 
15492000    2049.9052   -660.83046    300876.58    14.518488 
15492500    1923.6773   -725.34909    291935.64    14.962678 
15493000    2091.9872   -727.20221    300613.84    14.979186 
15493500    1917.1068   -699.74421     300839.4    14.755542 
15494000     2077.904   -721.82847    300109.53    15.092147 
15494500    1980.2398   -738.01038    286736.13    15.314901 
15495000    1886.9875   -740.30929    302529.49    15.286895 
15495500    2091.7681   -625.04899    308063.45    14.497528 
15496000    1810.7197   -577.39858    304592.51    14.349244 
15496500    2044.8755   -620.83771    299661.03    14.448797 
15497000    1925.0955   -676.52521    297216.14    15.022189 
15497500    1986.6527   -720.45426    283459.03    15.386101 
15498000       1968.1   -740.23819    288429.63    15.452569 
15498500    2048.7662   -740.21783    297279.48    15.266653 
15499000    2221.0341   -738.25663     299037.6     15.33151 
15499500    1949.3754   -700.73966    296554.32    15.228139 
15500000    1770.4352   -719.32438    301230.01    15.379479 
15500500    1877.9856     -718.952    300616.69    15.295267 
15501000    1910.7661   -654.34484    302653.88     14.77912 
15501500    1759.5069   -667.85735    296565.53    14.942674 
15502000    1999.1403   -711.77071    294093.86     15.19371 
15502500    1891.1801   -699.35029    303055.16    15.297198 
15503000    1874.2388   -701.09607    305007.77    15.274785 
15503500     1934.977   -644.80946    304305.73    14.866408 
15504000    2038.8034   -633.20594    300508.75    14.764073 
15504500    1944.2308   -675.09716    294533.93    15.109149 
15505000    1942.1431   -674.46798    298450.98    15.193214 
15505500    1845.3889   -695.68164    276045.73    15.421282 
15506000    2059.5509   -641.68638    307866.41    14.931806 
15506500    1980.8239   -587.51251    301281.57    14.580464 
15507000    2088.8552   -610.93243    301356.41     14.66116 
15507500    2034.5005   -701.61762    281130.97     15.47133 
15508000    2185.6597   -636.43763    301689.88    14.963175 
15508500    2068.6486   -689.12938     301419.5    15.360223 
15509000    1985.1845   -636.66203    300585.05    14.889081 
15509500    1962.2188    -627.5261    298921.16    14.706006 
15510000    1965.2576   -636.30614    303205.05    14.731795 
15510500    1738.3952   -662.03841    296398.53    15.080739 
15511000    1882.8724   -724.33664    292802.86    15.485098 
15511500    2002.0743   -711.09606    301336.76    15.427055 
15512000    2137.4542   -757.28247    295198.16     15.77828 
15512500    1992.2106   -753.05749    297729.39    15.816927 
15513000    1841.1682    -666.2942    294414.04    14.916617 
15513500    1899.3291   -664.18238    297901.24    14.824032 
15514000    2169.5496   -683.04766    309063.27    14.960827 
15514500    1717.6234   -743.60085    300789.55    15.439592 
15515000    2051.0804   -741.38408    307874.24    15.390902 
15515500    1886.4692   -728.92816    300705.92    15.387279 
15516000    1938.5919   -736.27984    306799.46    15.332949 
15516500    1949.5709   -744.98308    295936.36    15.485321 
15517000    2128.2567   -696.15142    299668.23    15.105915 
15517500    2100.3186   -701.26103    294323.95    15.165344 
15518000     1907.553   -619.54512    305050.53    14.712173 
15518500    1961.9967   -724.56508    302509.46    15.349677 
15519000    1933.0557   -745.17662    298461.92     15.49596 
15519500    1891.4267   -757.38832     295940.1    15.780538 
15520000     1896.448   -746.10584    303199.41    15.625885 
15520500    2126.5649   -702.27677    297628.96    15.467627 
15521000    2030.2618   -636.61649    303498.14    14.994591 
15521500    2235.9588   -723.30602    302519.57    15.621733 
15522000      2094.02   -713.04384    299786.12    15.462816 
15522500    2024.2094   -688.06368    303475.82    15.253041 
15523000    2033.0834   -723.88741    295053.72    15.798008 
15523500    2043.4866   -700.31964    300015.88     15.52403 
15524000    2039.8369    -707.2439    299154.05    15.412353 
15524500    2025.6904   -645.33572    302824.77    14.973724 
15525000    1988.8106   -714.69903    294631.99    15.467827 
15525500    1951.9957   -665.37601    299727.83    15.184989 
15526000    2057.0168   -648.18491    306629.23    15.025018 
15526500    1892.5104   -660.73516    296125.66    14.834195 
15527000    2152.8448   -594.63387    294609.14    14.379486 
15527500    1916.7611   -591.85745    290826.29    14.411086 
15528000    2077.4058   -593.39743    293218.65    14.475393 
15528500    2117.5639   -584.28686    305659.81    14.353702 
15529000    2071.1786   -591.54244    305216.02    14.332567 
15529500    2006.0583   -618.55251    301039.71    14.556565 
15530000    1969.7265   -670.17814    293651.58     14.72924 
15530500    1820.3272   -573.05505    324117.36    14.214339 
15531000    2128.4244   -574.54789    313039.91    14.232291 
15531500    1943.5237   -577.90409    326952.79    14.184446 
15532000    1942.8127   -582.51462    286432.46    14.246277 
15532500    2107.6963   -573.78585    322383.63    14.218761 
15533000    2114.9406   -635.18011    295944.71    14.506134 
15533500    1925.2064   -640.61473    309065.41    14.640236 
15534000    2097.4895   -646.99977    299911.43    14.839598 
15534500    2032.7032   -710.06554     294549.4    15.558851 
15535000    2025.5029   -640.14245    301713.04    15.007663 
15535500    2130.5074   -661.87742    294589.39    15.232761 
15536000    2048.0409   -688.28998    303225.44    15.398645 
15536500    2125.5646   -697.88557     305715.4    15.612569 
15537000    2007.9463   -640.16207    302558.26    15.090365 
15537500    2133.6586   -660.11612    298856.02    15.151089 
15538000    1953.9964   -642.66341    302182.39    15.005333 
15538500    2072.0967    -715.3774    300393.95    15.627733 
15539000    2034.2257   -632.73085    307468.28    15.022998 
15539500    2090.2808   -685.17352    298556.14    15.350147 
15540000    1924.5581   -676.16008    291728.88    15.312709 
15540500    2089.4458   -623.52475    303201.85    14.824167 
15541000    2214.2199   -652.10841    301468.99    15.187292 
15541500    1998.6977   -641.74388    297533.98     15.10826 
15542000    1963.4741   -717.01925    297520.37     15.45869 
15542500    1798.0343   -698.56642    293029.87    15.371616 
15543000    2083.9849   -713.52369    302372.38    15.405449 
15543500    1989.7106   -668.60739    302533.58    15.184417 
15544000    2211.8917   -647.64956    302618.33    15.171402 
15544500    1911.5979   -647.94317    300943.69    15.047144 
15545000    2056.2585   -743.80915       300052    15.800433 
15545500    2175.1992   -747.46432    308289.06    15.746079 
15546000    1934.9567   -662.55597    302155.68    15.109101 
15546500    2019.0371    -682.4477    297086.25     15.38609 
15547000    2011.7808   -723.68836    301686.67    15.615613 
15547500    1955.8048   -720.87699    298747.57      15.7615 
15548000    2004.1556   -612.76659    301853.93    15.044405 
15548500    1954.1362   -662.24999    300693.47    15.348712 
15549000    1995.7224   -686.50461    297815.81    15.728759 
15549500    1973.0486   -630.81015    294629.32    15.298618 
15550000     1828.489   -642.51845    297836.43    15.246909 
15550500    2094.2892   -630.71759    298077.55    15.238887 
15551000    2001.4221   -692.94473    302914.82    15.580701 
15551500    1911.9757   -700.22246    297411.33    15.692642 
15552000    1850.9981   -627.33252     299498.9    15.036284 
15552500     1907.453   -583.04534    296945.18    14.594294 
15553000    1995.4464   -688.29072    299948.88    15.178192 
15553500     2039.494   -752.55067    300432.49    15.749364 
15554000    1910.7877   -712.85963    301170.07    15.254857 
15554500    2161.7255   -712.34238    300726.51    15.223312 
15555000    1992.1198    -693.0499    300754.38    15.192953 
15555500    2080.0435   -704.20982    305526.82    15.144233 
15556000      2034.39   -700.89916    307076.07    15.031021 
15556500    2092.9863   -705.71553    303732.09    15.035557 
15557000     2045.866   -697.59291    294411.02    15.123206 
15557500    1814.8898   -685.83391     301878.1    14.998612 
15558000    2007.9647   -733.88148     303990.6    15.414371 
15558500    1864.8398   -746.19554    299356.34    15.520043 
15559000    1909.1536    -697.8805    299400.99    15.067353 
15559500    1939.8592   -712.67606    302522.48    15.185709 
15560000    1898.1366    -729.2564    300229.11    15.472369 
15560500    1978.9291   -752.83802    297915.65     15.65692 
15561000    1834.6601   -728.01086    297657.59    15.439559 
15561500    1913.4076    -739.8989    302066.85    15.829019 
15562000    2009.1056   -722.19315    297034.52    15.705795 
15562500    1831.6847   -616.56186    301324.89    14.926813 
15563000    1925.2958   -711.95398    300339.15    15.525286 
15563500    1898.4323   -693.57467     301005.9    15.567289 
15564000    2076.2081   -684.89083    302908.52    15.537123 
15564500    2095.6936   -633.33097    297681.22    15.062823 
15565000    1930.3469   -643.68277    296977.47    15.090321 
15565500    1958.0607   -664.01948    298081.48     15.23053 
15566000    2002.3721   -685.34865    294465.68    15.389577 
15566500    1819.3205   -634.55917       295520     15.15174 
15567000    2008.1358   -672.86933    297737.68     15.35741 
15567500    1886.8074   -666.57129     300034.2    15.249155 
15568000    1925.0588   -739.92404    297324.54    15.753385 
15568500    1925.2242   -647.18348    297977.69    14.971361 
15569000    1965.1257   -681.08351    299015.95    15.182542 
15569500    2027.6841   -674.97407    298331.24    15.272808 
15570000     2071.052   -641.97339    298245.29    15.085674 
15570500    1919.5315   -678.72511    297021.39    15.329804 
15571000    1990.9359   -674.14947    299336.67    15.244561 
15571500    2145.1045   -723.27217    297543.38    15.690666 
15572000    1882.5099   -676.45543    302408.28    15.427659 
15572500    2103.6724   -687.49212    303401.84    15.618494 
15573000    2181.7802   -625.12189    310671.86    15.059961 
15573500    2049.7071   -647.49242    296956.98    15.257911 
15574000    2065.8828   -663.09702    306021.79    15.134038 
15574500    2106.4753   -667.24944    297754.67    15.295506 
15575000    2054.6757   -664.76889    298263.13    15.171456 
15575500    2200.1694   -655.77096    298721.44    15.142214 
15576000    2049.6867   -662.00489    295172.94    15.289217 
15576500    1992.5719   -665.60148    305362.01    15.103235 
15577000    1918.0798   -681.16531    295074.02     15.43978 
15577500    1992.6423    -651.6731    302113.96     15.12923 
15578000    1971.7353   -726.27407    297530.28     15.61888 
15578500    2106.5577   -667.32566    303110.13    15.189283 
15579000    2091.0084   -674.93013    296708.89     15.23708 
15579500    1994.2414   -722.54836    301959.09    15.472241 
15580000    1975.9127   -724.54538    302136.54    15.408266 
15580500    2004.8136   -715.65385     302244.5    15.378715 
15581000    1914.4879   -695.89493    302498.45     15.32302 
15581500    1956.1144   -704.65478    298947.48    15.601001 
15582000    2023.5395   -699.21174     298027.1    15.605817 
15582500    2178.6478   -699.69668    302010.67    15.625342 
15583000    2108.7969   -698.66202       302114    15.638221 
15583500    2029.4355   -662.78796    296286.19    15.352662 
15584000    1940.4347   -639.40954    303489.01    15.207155 
15584500    1915.8195   -659.79028    294060.84    15.262324 
15585000    2111.0133   -706.63016    298874.78    15.544324 
15585500     1850.974   -686.42879    300440.84    15.598614 
15586000    2186.3352   -642.09584    300339.61    15.248496 
15586500    2066.6529   -665.33649    300846.07    15.142509 
15587000    2009.2989   -575.68537     301220.3    14.655009 
15587500    1849.0315   -650.10124    299314.35    14.984172 
15588000    1964.9324   -645.93069     305643.5    14.782266 
15588500    2037.2194   -642.95401    300554.85    14.736886 
15589000    1941.4087   -640.37394    292602.18    14.741565 
15589500    2111.0766   -700.14251     294919.6    15.125896 
15590000    2201.1143    -612.0184    303127.47    14.671008 
15590500    1797.4263   -623.92025       294656    14.965928 
15591000    1850.6332   -695.33276    296256.97    15.597448 
15591500    2123.2123   -701.96321     304521.4    15.647174 
15592000    2000.8121   -708.36834    293659.04    15.686811 
15592500    2084.0068   -728.68765    303892.97    15.744552 
15593000    2072.2646   -697.00572    303302.15    15.522098 
15593500    1995.0224   -700.16914    298423.84    15.630203 
15594000    1941.1186   -666.70748    297550.27    15.430484 
15594500    1979.0616   -663.20752    295074.57    15.369128 
15595000     2092.635   -637.35833    299875.62    15.151284 
15595500    1842.4763   -705.93553    297733.45    15.635229 
15596000    1984.3662   -696.60012    297310.15    15.606273 
15596500     1895.093   -607.46742    299835.68    14.805309 
15597000    1928.0287   -665.02031    294804.67    15.088914 
15597500    1885.4158   -678.36816    297340.73    15.308913 
15598000    1895.2082    -708.0321    300105.57    15.373287 
15598500    1946.4401   -644.38861    290880.78    14.976323 
15599000    2064.5379   -642.63163     300603.2    14.785127 
15599500    1970.1211   -672.20776    293147.55    14.778238 
15600000    2002.4481   -728.48873    299845.41    15.204828 
15600500    1846.4152   -728.63839    299536.07    15.255986 
15601000    1952.3644   -728.29877    304065.66    15.286924 
15601500     2072.668   -714.60734    309377.34    15.232488 
15602000    2030.8532   -704.79004    303210.18    15.153756 
15602500     1919.994   -702.98242    298133.31    15.134469 
15603000    2215.8215   -704.63124    304749.23    15.079003 
15603500    2097.4099    -655.2741    299263.74     14.72641 
15604000    2100.9255   -611.56963    295282.93    14.418855 
15604500    1964.5315   -617.17927    295066.21    14.393087 
15605000    2048.4937    -655.2423    306132.12    14.666644 
15605500    1967.0285   -678.07895    307079.88    14.747295 
15606000     1960.209   -699.11074    297585.24    14.958686 
15606500    1902.4027   -713.94616    307698.74    15.118696 
15607000    2201.0515   -743.15543    304968.47    15.478784 
15607500      2082.65   -757.89601    302353.66    15.674863 
15608000    2067.0564    -743.4813    292818.77    15.509766 
15608500    2059.0759   -720.64507     304812.8    15.150306 
15609000     1984.171   -740.02037     293009.2    15.373799 
15609500    1921.5322    -698.6753    295083.03    15.019404 
15610000    2095.0519   -729.49748    294188.75    15.272511 
15610500    1935.4025   -754.23516    297076.03    15.759869 
15611000    2017.3214   -760.80612    296793.75    15.750615 
15611500    1946.4936    -740.1373    292541.85    15.595421 
15612000     2042.297    -736.5068    298216.21    15.556829 
15612500    2049.0916   -645.34467    309786.96    15.073128 
15613000    1986.5952   -706.32039    300306.51    15.477637 
15613500    1947.3524   -705.88457    303795.23    15.326604 
15614000    2101.6929   -727.51423    303770.01    15.397558 
15614500    1853.3231   -722.49889    302082.54    15.421965 
15615000    1940.9072   -748.72761    303735.23    15.562952 
15615500    1752.7285    -680.8554    304014.08     15.09841 
15616000    1817.4264   -643.50522    300723.77    14.958116 
15616500    1980.6467   -619.88776    302199.44    14.789528 
15617000    1815.2678   -647.49922    294466.31    14.817769 
15617500    2016.9981   -632.19865    307378.61    14.696783 
15618000    1901.3475   -584.09368    306829.73     14.53652 
15618500    2117.4981   -591.22368    296144.75    14.570197 
[...]
29848000    2184.6557   -655.37449    300694.65    15.125997 
29848500    2088.5598   -725.39895    292845.39    15.678234 
29849000    2221.0535   -651.03887    303188.83    15.123337 
29849500    1919.0454   -672.32668    300551.48    15.272224 
29850000    1870.6306   -708.57572    297942.42    15.394725 
29850500    2063.8493   -722.95272    300929.44    15.387848 
29851000    2082.6349   -694.84232    304324.09    15.277682 
29851500    2128.3755   -640.76337    305939.77    14.983152 
29852000    1869.6778   -672.00167    297352.21    15.198278 
29852500    2166.4818   -676.04647    300113.98    15.127692 
29853000    2067.5921   -667.15732    293667.48    15.306837 
29853500    2082.9317   -669.47625     299420.7    15.106255 
29854000    2120.7166   -673.21699    301180.11    14.992573 
29854500    1801.6617   -664.89438    293044.21    15.181087 
29855000    2044.7208   -652.41884    298516.68    15.053278 
29855500    1999.4519   -678.98864    294972.23     15.34786 
29856000    1970.7996   -637.18666    301020.09    15.025658 
29856500     2051.306   -660.58056    299669.71    15.169452 
29857000    1863.1989    -697.7788    300879.98    15.541232 
29857500    2044.0462   -681.30866    297752.89    15.585887 
29858000    1937.2775    -697.1502    295511.88    15.681095 
29858500     1926.959   -700.17909    298549.62    15.609616 
29859000    2089.2972   -617.47089    314585.52    15.029145 
29859500    2049.6713   -722.93095    298110.39    15.803833 
29860000    1924.5628   -705.19028    304653.13    15.614384 
29860500    1852.5902   -689.69691    300576.22    15.580888 
29861000    2055.9374   -679.65474    301656.27    15.434748 
29861500    2149.5912   -655.98661    299644.09    15.259687 
29862000    1901.3732   -654.57066    294010.14    15.234584 
29862500    2115.5449   -732.12743    305021.18    15.754118 
29863000    2048.6978   -735.77558    289098.37    15.985312 
29863500    2063.9025   -625.86096    304710.36    15.102162 
29864000    2129.4073   -662.48407    301587.56     15.16407 
29864500    2069.9481   -635.03628    305411.55    14.929476 
29865000    2051.7714   -716.23932    294376.35    15.701729 
29865500    2167.4013   -720.95446    301234.39    15.727585 
29866000    1911.3451   -719.01244    302780.96    15.548118 
29866500    2239.2139   -747.02206    304060.02    15.606231 
29867000    2008.5444   -725.81965     305549.8     15.44966 
29867500    2014.7891   -730.98863     300247.5    15.625153 
29868000    1923.5457   -679.35618    302914.06    15.266483 
29868500    2040.8068   -725.80491    292098.33    15.674176 
29869000    1806.3979   -744.20439    297524.36    15.855431 
29869500    1865.5349   -645.12502       297401    15.100447 
29870000    2171.7195   -667.14365     293707.2    15.312496 
29870500    1990.2501   -655.79418     298785.8    15.112255 
29871000    2003.0003   -686.10496    299840.92    15.288724 
29871500    2111.1664   -671.94762    297321.08    15.277023 
29872000    1952.7368   -629.63518     299420.7    15.058136 
29872500    2097.8422   -704.82206    298105.01    15.625251 
29873000    2231.8109   -706.66362    304768.52    15.625488 
29873500    2133.4305   -706.20216    302129.36    15.507015 
29874000    1965.2567   -647.73461    293416.69    15.157041 
29874500    2000.3031   -704.40677    298946.69    15.667954 
29875000    1983.7892   -697.43422    302515.02    15.637083 
29875500    2044.4671   -696.33798    303522.06    15.574572 
29876000    1995.8528   -685.74111    299411.87    15.553307 
29876500    2202.5714   -628.78621    299231.81    14.915668 
29877000    2106.7087   -667.67805     303832.2    15.291959 
29877500    2034.5791   -630.81515    304397.91    15.133214 
29878000    1929.3646   -677.95068    300887.35    15.418655 
29878500    1912.6403   -707.43736    295844.17     15.67747 
29879000     2194.516   -691.71232    295009.38    15.522091 
29879500    2282.3359   -689.63154    305159.74    15.566352 
29880000    2064.9766   -704.54306    299718.56    15.613704 
29880500    2125.1704   -714.62375    294787.99    15.714814 
29881000    2018.3348   -750.94968     301435.4    15.820422 
29881500    1906.0545   -751.14963    301253.49    15.716154 
29882000    1919.6716   -653.93267    294763.16     14.86702 
29882500    2019.8014   -697.75458    299449.73    15.068639 
29883000    2014.2132   -709.21098    302402.61    15.307465 
29883500    1927.5696   -647.18031    293653.98    14.877024 
29884000    1914.3529   -634.17098    305934.76    14.740908 
29884500    2006.7929    -632.1244    296784.73    14.748604 
29885000    1935.9931   -614.81879    303048.55    14.643253 
29885500    2001.3559   -664.06387     300610.2    14.930501 
29886000    1824.9161   -617.72721    299107.79    14.759515 
29886500    2092.7998   -608.63149    313808.78     14.62943 
29887000    2088.2236   -663.97999    303385.29    14.897721 
29887500    1912.3987   -648.78047    300587.27    14.803864 
29888000    1929.4281   -653.44844    296825.02    14.840618 
29888500    1973.8122   -657.24355    296373.72    14.912363 
29889000     1901.077   -716.28316    295043.89    15.432218 
29889500    2080.3288   -754.07415    300361.52    15.707316 
29890000    1883.3812   -704.85854    300210.97     15.20291 
29890500    1883.7358    -710.0391    294215.28    15.168971 
29891000    1961.1661   -705.68976    291857.97     15.11285 
29891500    1926.0237    -689.0436    289186.18    14.969927 
29892000     1954.899   -714.78423    284491.15    15.201401 
29892500    1929.7477   -726.84211    301531.26    15.403155 
29893000    1993.9238   -743.52184    299191.59    15.624283 
29893500    1859.5515   -742.89822    303071.18    15.444055 
29894000    1826.7712   -713.18387    296550.41    15.204139 
29894500    2224.5244   -750.19725    300149.52    15.548751 
29895000    2066.9268    -740.6159    301335.93    15.501015 
29895500    2073.8044   -739.69104       298314    15.537543 
29896000    1969.8055   -721.31666    301944.73     15.27664 
29896500    2094.4464    -706.0384    300296.62    15.183916 
29897000    2036.8657   -690.51215    304950.38    15.053481 
29897500    2011.8676    -698.6225    299186.96    15.086224 
29898000    1992.1256   -753.91964    295682.78    15.767457 
29898500      2050.52    -707.5292    299852.58    15.241095 
29899000    2126.4716   -715.70455    283648.43    15.255645 
29899500    1911.3166   -606.09573    301828.52    14.619888 
29900000    1770.8065   -639.70663    299396.19     14.83826 
29900500    2093.7617   -657.42916    293675.38    14.825289 
29901000     2033.754   -637.07249    306165.69    14.739642 
29901500    2112.3082   -637.73296    300025.79     14.77961 
29902000    2101.1911   -644.22863    304676.56    14.691162 
29902500    2023.9237    -739.8009    301215.18    15.425077 
29903000    1985.7489   -737.48681    296080.54    15.438413 
29903500    1952.8965   -742.82838    296988.41    15.595686 
29904000    1942.7449    -734.8206    297750.54    15.499733 
29904500    1866.1056    -667.2618    300774.46     14.93637 
29905000    1969.3966   -638.49091    302518.11    14.857136 
29905500    1967.3974   -643.79657    296876.28    14.834614 
29906000    1893.1469   -588.89226    292168.85    14.552365 
29906500    2072.7957   -595.30435    295893.45    14.628154 
29907000    1959.3079   -587.90747    295988.99    14.602931 
29907500    2045.0407   -637.33738    292741.54    14.892971 
29908000    2110.1801   -656.70244    297881.08    14.879876 
29908500    1851.1162    -751.6291    302178.92    15.679064 
29909000    1963.4288   -752.25337     302545.7     15.68053 
29909500    1835.6163   -754.81364    298268.36    15.726371 
29910000    1909.2485   -639.62431    291508.68     14.76043 
29910500    2126.7155   -638.47197    296824.63    14.740646 
29911000    2038.9129   -649.66203    295054.78      14.8506 
29911500    1825.4038   -631.67297     300788.1    14.801581 
29912000    2083.1793   -633.13792    298559.33    14.756052 
29912500    1786.3119   -662.38804    295442.69    15.239759 
29913000    1967.1846   -592.75346    311149.76    14.864905 
29913500    1977.5537   -698.19868    291975.22    15.798006 
29914000    2209.5817   -722.55974    304075.43    15.865069 
29914500    2046.2281    -632.0077    299532.78    15.082696 
29915000    1946.9619    -637.3126    304345.96    15.039209 
29915500    1918.7518   -711.41308    291743.47    15.739432 
29916000    2214.6979   -621.65015    308846.22    15.039293 
29916500     1844.253   -628.43565    300835.14    15.062865 
29917000    2009.2772   -704.17946    298898.68    15.614773 
29917500    2003.5464   -690.12927    300782.16    15.536705 
29918000    2036.9536   -718.17418    300639.92    15.699596 
29918500    1791.8992   -625.73278    304673.15    14.971891 
29919000    1799.4586   -589.18134    302069.74    14.740016 
29919500    2071.4924   -635.12726    301264.52    14.842699 
29920000    1893.0134    -649.6359    298789.72    15.002567 
29920500    1963.3328   -666.19078    305627.19    15.247267 
29921000    1906.6212    -659.5383    301909.67    15.193776 
29921500     1957.808    -664.7739    294990.99    15.151712 
29922000    1945.4641   -702.62828    297916.89    15.557644 
29922500    1994.2662   -639.03445     297704.8     14.99385 
29923000     2056.351   -706.02119     300012.9    15.350665 
29923500    1910.9497   -697.90714    303821.13    15.333705 
29924000    1962.8569   -687.26899    302089.79    15.258642 
29924500    2239.5621   -723.32263    296576.45    15.618089 
29925000    1804.7413   -757.98041    267911.71    15.858935 
29925500    1931.4725   -758.14438    301480.73     15.72987 
29926000    2113.6799   -739.02733    307487.48     15.51004 
29926500    2106.0586   -760.45291    296695.56     15.74495 
29927000    1940.8914   -737.46596    301018.03    15.588887 
29927500    1935.4164   -639.17851    302369.17    14.917524 
29928000    2082.1967   -685.32965    304767.02    15.303922 
29928500    1956.8543   -692.52699    303796.98    15.445114 
29929000     2074.741   -639.70359    295288.38    15.159637 
29929500    1885.7344   -666.59609     297877.9    15.304067 
29930000     2166.568   -729.18065    295263.52    15.968708 
29930500    2113.1578   -634.05374     304498.7    15.142142 
29931000    2025.8974   -666.01791    300547.85    15.306334 
29931500    2014.3758   -640.15541    299405.45    15.179801 
29932000    2022.2323   -708.88715    299008.65    15.467566 
29932500    1948.1964   -679.19053    302752.11    15.368224 
29933000     2069.729   -650.17406    299691.81    15.071292 
29933500    1970.3946   -716.50973    297053.84    15.354604 
29934000    1984.5151   -704.85058    302685.49    15.241043 
29934500     1828.475   -678.09723    301934.23    15.007829 
29935000    1905.2884   -639.90827    299118.96    14.732405 
29935500    2007.1044   -645.88613    301916.32    14.898856 
29936000    1947.7538   -690.30057    297792.42    15.251871 
29936500    2185.5444   -633.87853    304181.15    15.095805 
29937000    2084.9395   -710.03633    295414.89    15.561946 
29937500      1915.12   -651.89466    302960.31    15.131313 
29938000    2009.9667   -645.17675    300669.38    14.989631 
29938500    1753.8953   -661.33809    293453.34    15.215681 
29939000    1894.7896   -683.01988    294390.26    15.349215 
29939500    1986.4015   -669.78248     300151.8    15.178547 
29940000    2112.5323   -683.34973    298399.32    15.356035 
29940500    1948.7159   -699.35001    301946.38    15.277487 
29941000    1887.7543   -748.06997     301004.4     15.68141 
29941500    2043.0964   -736.55341    293185.82    15.612466 
29942000    2028.5094    -684.6104    298336.47    15.199693 
29942500    2014.2763   -647.40876    300693.79    14.945063 
29943000    1807.2358   -694.81322    299997.72    15.350433 
29943500    2112.7912   -688.30083    300181.49    15.293994 
29944000    2212.7528   -653.09163     299785.8    15.150292 
29944500    2186.7153    -610.2259    300043.23    14.913255 
29945000    1849.4899   -656.39597    300193.15     15.22726 
29945500    1942.5159   -638.32558    298200.71    15.212608 
29946000    2235.0366   -664.07715    297910.51    15.369687 
29946500    2093.9502   -664.72726    299621.37    15.250683 
29947000    2084.3653   -623.92451    299263.62    15.036502 
29947500     1992.336    -646.9651    295906.76    15.289612 
29948000     1876.031   -698.84481     295830.3    15.713536 
29948500    1959.3053   -712.90039    298880.13    15.619637 
29949000    1765.1845   -674.01713    296139.86    15.359397 
29949500    1921.0121   -600.64527    301041.45    14.860609 
29950000    2119.1122   -693.99934    302027.26    15.592012 
29950500    2018.9606   -666.77877    297358.57    15.379235 
29951000    2217.8327   -660.77292    301592.26    15.257141 
29951500    1919.9365   -627.99561     302433.1    15.120212 
29952000    1997.9597    -636.4227    299746.46    15.145379 
29952500    2104.9852   -723.09153    298447.68    15.845373 
29953000    2071.9525   -652.09031    297728.42    15.161112 
29953500    2011.2558   -633.00849    294133.37    14.908188 
29954000    2104.3782   -630.48311    297613.32    14.768308 
29954500    1867.6174   -637.58683    292438.07    14.983557 
29955000    2037.9068   -573.37298    317278.84    14.525913 
29955500    1988.9285   -638.19113    295762.58    14.809729 
29956000    1996.9676   -615.42838    304713.97    14.710575 
29956500    2040.7114   -575.40823    302268.61    14.614161 
29957000    1981.6242   -599.24088    298243.62    14.729833 
29957500    1866.8792   -594.39342    298187.63     14.80308 
29958000    1902.6589   -607.90452    293835.91    14.784962 
29958500    2004.7609   -694.96701    301049.08    15.375796 
29959000    2031.4344   -698.23829    303675.22    15.636708 
29959500    2114.4329   -681.51773     304386.3    15.374651 
29960000    1867.5923   -625.69691    296755.68    15.040064 
29960500    1869.6096   -668.10181    296319.84     15.32062 
29961000    2071.2486   -641.38925     304436.7    15.124085 
29961500      2161.47   -690.25585    304689.49    15.438926 
29962000    2002.1486    -731.6338    294645.04     15.95603 
29962500    2077.2598   -624.72715    304588.97    15.150685 
29963000    1858.9365    -710.9756    298642.71    15.705091 
29963500    1997.8426   -702.30814    300525.66    15.667306 
29964000      1883.72   -647.68563    302105.59     15.14969 
29964500    1916.2565   -592.13548    299458.14     14.68557 
29965000    1853.9784   -581.91852    298259.84    14.638634 
29965500    2059.0596   -648.12866    298189.95     14.81349 
29966000    2123.5314   -643.72665    299846.51    14.797206 
29966500    1961.2443   -644.27347    295848.46    14.778087 
29967000    2054.9043   -709.94809    297643.51    15.265897 
29967500    2016.5106   -739.93817    297493.22    15.462334 
29968000    2045.3608   -752.52838    300000.09    15.527121 
29968500    1923.2506   -720.92764    297963.31    15.238897 
29969000    2090.5502   -750.44798     299976.8    15.618441 
29969500    1920.4049   -688.83202    301663.47    15.045918 
29970000    2108.9054   -718.99404    295996.69    15.125672 
29970500     1773.928   -690.81819    300550.21    14.954277 
29971000    2117.4517   -658.87401    295605.64    14.792881 
29971500    1940.7902   -669.08669    301888.07    14.863301 
29972000    1933.4094   -748.19243    298364.72    15.560461 
29972500    1800.2931   -755.69861    299855.93    15.680278 
29973000    2063.9445   -642.85559    291770.09    14.800562 
29973500    2100.4166   -651.99749    293639.14     14.87489 
29974000    1993.7058   -620.01632    302534.54    14.654617 
29974500     2003.185   -604.66575    289500.32    14.635599 
29975000    2057.6705   -649.58475    300709.77     14.81652 
29975500    1891.2266   -636.86317    299631.12    14.859748 
29976000    1869.3788     -698.509    301840.43    15.380421 
29976500    2063.5923   -704.27607    295418.32    15.636553 
29977000     1972.774   -677.35204    303188.03    15.149416 
29977500    1988.0328    -738.9064    293838.98    15.731008 
29978000    2085.7383   -659.22911    298617.67    15.178563 
29978500    2063.0531   -674.43978    302940.15    15.337087 
29979000    2122.4597   -684.77966    303978.86    15.231947 
29979500    1990.8812   -718.60214    297646.68    15.588852 
29980000    1941.8304   -731.27928    299258.64    15.570934 
29980500    1947.3931   -680.34557    307446.83    15.147394 
29981000    2080.3343   -732.01112     301638.9    15.536962 
29981500    1975.0281   -742.16749     295723.5    15.625287 
29982000    1844.9608   -757.30803    297275.46    15.663502 
29982500    1934.2218    -706.0592    303004.59    15.102348 
29983000    1949.8426   -663.29596    301290.03    14.725277 
29983500    1943.2366   -752.03645    298239.44    15.456942 
29984000    2038.1722   -734.49032    298801.36    15.212428 
29984500    1896.2226   -724.00775    298358.46    15.357283 
29985000    1995.5516   -700.07812    306568.73    15.190748 
29985500    2034.1262   -683.70227    301342.24    15.237795 
29986000    2052.4157   -674.30272     293317.3    15.201908 
29986500    1870.3256   -665.22814    297255.62    15.062851 
29987000    2009.3325   -658.22022     300075.4    14.914464 
29987500    1879.2045   -691.43696    297663.13     15.12087 
29988000    1962.6828   -667.78107    298512.42    15.115457 
29988500    2036.7482   -673.72572    298999.02    15.115166 
29989000    1964.4431   -602.03993    299854.89     14.56165 
29989500    1971.5367   -591.63693    293150.31    14.574797 
29990000    2044.1944   -605.16001    295561.94     14.62322 
29990500     2015.059   -605.79324    292315.62     14.58494 
29991000    1951.6789   -595.52851    290726.48      14.6113 
29991500    1948.5487   -597.98212    291926.16    14.580001 
29992000    2086.8921   -658.72235     298393.1    14.802404 
29992500    2117.1207   -634.25091    301437.23    14.672083 
29993000    2000.5411   -750.20922    298159.29    15.676162 
29993500     2007.296   -727.52581    300552.41     15.25712 
29994000    2099.7507   -728.23112    294132.64    15.163404 
29994500    1944.8333   -722.88321    303951.11    15.163929 
29995000     1847.306   -644.92671    312474.32    14.575362 
29995500    1934.4183   -654.10647     303002.9    14.662643 
29996000    1943.1872   -673.89872    296730.34    14.856801 
29996500    2023.5238   -735.90719     303658.3    15.248432 
29997000    1970.4583   -682.86252    303224.87    14.858476 
29997500    1988.7434   -632.27193    305739.24    14.634603 
29998000    2057.9753    -651.4204    300459.87    14.741281 
29998500    1917.2039   -647.26636    303619.79    14.907177 
29999000    1914.0184   -687.84565    299209.01     15.28705 
29999500    1974.5802   -717.82114    281551.48    15.433582 
30000000     2230.199   -699.82101    306870.15    15.367012 
Loop time of 67141.7 on 6 procs for 15000500 steps with 250 atoms

Performance: 38.606 ns/day, 0.622 hours/ns, 223.416 timesteps/s
99.4% CPU use with 6 MPI tasks x no OpenMP threads

MPI task timing breakdown:
Section |  min time  |  avg time  |  max time  |%varavg| %total
---------------------------------------------------------------
Pair    | 3739.1     | 3845.1     | 3939       |  99.5 |  5.73
Neigh   | 107.51     | 108.15     | 108.9      |   4.2 |  0.16
Comm    | 865.49     | 958.35     | 1073       | 210.8 |  1.43
Output  | 390.9      | 390.93     | 391.02     |   0.2 |  0.58
Modify  | 61776      | 61785      | 61797      |   2.7 | 92.02
Other   |            | 54.56      |            |       |  0.08

Nlocal:    41.6667 ave 45 max 37 min
Histogram: 1 0 0 0 0 1 2 1 0 1
Nghost:    1122.83 ave 1131 max 1112 min
Histogram: 1 0 0 0 1 1 1 1 0 1
Neighs:    3380.5 ave 3594 max 3036 min
Histogram: 1 0 0 0 0 2 1 0 0 2

Total # of neighbors = 20283
Ave neighs/atom = 81.132
Neighbor list builds = 752737
Dangerous builds = 0

write_data	data.final
Total wall time: 18:39:07
