LAMMPS (8 Feb 2019)
Processor partition = 0
echo both

include		in.partitions
variable p_id world   0 1 2 3 4 5
include		in.temp
variable	temperature equal 2000.
variable	tempDamp equal 0.1 # approx 0.1 ps
include		in.pressure
variable	pressure equal 300000.
variable	pressureDamp equal 1.0
include 	in.seed
variable	seed world 74581 93734 128321 21934 495716 871038
units		metal
include		in.box
read_data	data.equil.${p_id}
read_data	data.equil.0
  orthogonal box = (-0.102744 -0.102744 -0.102744) to (15.1027 15.1027 15.1027)
  1 by 2 by 3 MPI processor grid
  reading atoms ...
  250 atoms
  reading velocities ...
  250 velocities

variable 	mass equal 26.981539
mass            1 ${mass}
mass            1 26.981539
include 	in.setup
variable	out_freq equal 500
variable	out_freq2 equal 500

neigh_modify    delay 10 every 1
include		in.al
### Argon Potential Parameters ###
pair_style 	eam/alloy
pair_coeff 	* * Al99.eam.alloy Al

timestep	0.002 # According to Frenkel and Smit is 0.001

thermo          ${out_freq}
thermo          500
thermo_style 	custom step temp pe press lx


restart 	${out_freq} Restart.lmp.${p_id} Restart2.lmp.${p_id}
restart 	500 Restart.lmp.${p_id} Restart2.lmp.${p_id}
restart 	500 Restart.lmp.0 Restart2.lmp.${p_id}
restart 	500 Restart.lmp.0 Restart2.lmp.0



# NPT

include		in.dump
dump            myDump all atom ${out_freq2} dump.al.${p_id}
dump            myDump all atom 500 dump.al.${p_id}
dump            myDump all atom 500 dump.al.0
dump            myDcdDump all dcd ${out_freq2} out.${p_id}.dcd
dump            myDcdDump all dcd 500 out.${p_id}.dcd
dump            myDcdDump all dcd 500 out.0.dcd
dump_modify	myDump append yes
dump_modify     myDcdDump append yes


timer 		timeout 23:50:00 every 1000
New timer settings: style=normal  mode=nosync  timeout=23:50:00

fix             1 all plumed plumedfile plumed.start.dat outfile plumed.out.${p_id}
fix             1 all plumed plumedfile plumed.start.dat outfile plumed.out.0
fix             2 all nph iso ${pressure} ${pressure} ${pressureDamp}
fix             2 all nph iso 300000 ${pressure} ${pressureDamp}
fix             2 all nph iso 300000 300000 ${pressureDamp}
fix             2 all nph iso 300000 300000 1
fix             3 all temp/csvr ${temperature} ${temperature} ${tempDamp} ${seed}
fix             3 all temp/csvr 2000 ${temperature} ${tempDamp} ${seed}
fix             3 all temp/csvr 2000 2000 ${tempDamp} ${seed}
fix             3 all temp/csvr 2000 2000 0.1 ${seed}
fix             3 all temp/csvr 2000 2000 0.1 74581
fix		4 all momentum 10000 linear 1 1 1 angular

run             15000000 upto # 30 ns
Neighbor list info ...
  update every 1 steps, delay 10 steps, check yes
  max neighbors/atom: 2000, page size: 100000
  master list distance cutoff = 8.28721
  ghost atom cutoff = 8.28721
  binsize = 4.1436, bins = 4 4 4
  1 neighbor lists, perpetual/occasional/extra = 1 0 0
  (1) pair eam/alloy, perpetual
      attributes: half, newton on
      pair build: half/bin/atomonly/newton
      stencil: half/bin/3d/newton
      bin: standard
Per MPI rank memory allocation (min/avg/max) = 4.003 | 4.003 | 4.004 Mbytes
Step Temp PotEng Press Lx 
       0    1782.0925   -696.55799     287606.5    15.205488 
     500     1841.429   -684.62983    312717.69    15.121195 
    1000    2049.6856   -680.65197    316347.46    15.082787 
    1500     1817.847   -673.06883    317252.44    15.075229 
    2000    1948.7062   -687.86252    304273.88    15.133883 
    2500    2189.2714   -688.00567    301525.79    15.197113 
    3000    1945.2297   -686.89181    294559.29    15.180794 
    3500    1950.7916   -684.88253    311057.45    15.111498 
    4000    2179.1363   -696.49768    299973.34    15.168906 
    4500    1965.1466   -696.85696     294978.1    15.162613 
    5000    2009.5861   -698.59664    296880.95    15.186382 
    5500    2106.6982    -681.9891    300054.55    15.168828 
    6000    1884.3697   -690.67371    305617.85    15.074729 
    6500    2058.1798   -674.34891     308809.8    14.958608 
    7000    1968.1087   -690.36876    306669.25    14.984067 
    7500    2046.1784   -691.24868    304491.59    15.052478 
    8000     1911.323   -695.44171    302217.97    15.112325 
    8500    1979.8567   -677.43288    308971.35    14.959423 
    9000    1957.2923    -725.6704    292271.71    15.254436 
    9500    2165.8548   -727.32087     302794.8    15.203109 
   10000    1974.3221   -729.79598    302074.63    15.199531 
   10500    1952.4562   -730.76601    314534.17     15.12541 
   11000    1979.8848   -735.63879    294834.25    15.201724 
   11500    2068.7095   -736.94195    299461.61    15.187093 
   12000    2043.6824   -731.64032    312261.77    15.175532 
   12500    1983.5066   -731.00025    310388.01     15.15495 
   13000    1774.2646   -714.69462    296068.32    15.273695 
   13500     2133.164   -694.26335    298069.09    15.169332 
   14000     1978.957   -670.19786    301849.52     14.95587 
   14500    2043.7352   -678.90313    292029.08    15.031498 
   15000    1970.1907    -665.5031    302029.25    14.914765 
   15500    1882.3717    -661.6205    314213.74    14.879021 
   16000    2105.9289   -727.67225    293159.13     15.31958 
   16500    1902.8005   -668.77939    287523.19    14.844259 
   17000    2100.9333    -660.0651    285082.54    14.867163 
   17500    1858.4718   -655.51277     295829.8    14.829896 
   18000    2030.4006   -660.34743    294116.61    14.758953 
   18500    1985.9762   -671.28829    289043.73    14.812503 
   19000    1837.9063    -649.7107    311848.42    14.717551 
   19500    1967.8363   -644.63304    332326.21    14.669073 
   20000    2113.5906   -654.96416    308492.52    14.737352 
   20500    2071.1373   -685.53684    291533.17     15.08997 
   21000    2096.3102   -672.42285    295383.48    14.983888 
   21500    2029.7169   -658.12524    295943.01    14.980468 
   22000    2082.9944   -664.19069    290722.63     14.98293 
   22500    2056.6738   -664.69943    286405.31    15.075095 
   23000    2085.3858   -653.94256    304354.33    14.942734 
   23500    2145.0841   -663.07332    285552.45    15.039854 
   24000    2085.8886   -655.39161    299206.23    14.937225 
   24500    2032.2355   -656.25217    291369.81    15.036518 
   25000    1989.0865   -648.25975    297953.17     15.00355 
   25500    2141.8886   -652.70123     301081.3    14.992093 
   26000    1901.5788   -657.92989    291828.87    15.026836 
   26500    1962.8737   -656.70689    292501.64    14.976325 
   27000    2109.2313   -652.13587    298437.84    14.909159 
   27500     1961.276   -638.72817    312730.97    14.884715 
   28000    1949.0221   -645.68345     299076.4    14.965647 
   28500    2006.7941   -638.11192    314208.49    14.919911 
   29000    1978.0915   -652.53044    292207.88    14.999296 
   29500     2208.458   -641.83676    301703.51    14.881047 
   30000    1886.7368   -666.27694    291585.56    15.011348 
   30500    2022.7982   -654.79595    295025.31    14.946933 
   31000    1919.4607   -645.35513    282890.39    14.914807 
   31500    2026.4694   -649.44814     301846.5    14.929267 
   32000    2080.7281   -652.60147    293742.81    15.003518 
   32500    2053.5625   -662.13611    295748.31    15.016842 
   33000    2073.7935   -675.91964    291854.57    15.126714 
   33500    2047.3493   -646.94347    312288.82     14.87393 
   34000    1856.9293   -649.95022    299008.49    14.954336 
   34500    2027.3623   -651.31168    292224.01     14.92154 
   35000    1814.0902   -677.03134    294922.05    15.125345 
   35500    2112.5662   -665.33751    295925.22     15.00748 
   36000    1937.0129   -662.07397    292017.19     14.95605 
   36500    1942.4478   -659.02784    300478.09     14.95011 
   37000    1880.2055   -651.78339       304670    14.907483 
   37500    1850.7355   -655.81655    290440.82    14.948737 
   38000    2020.3435   -647.52238    302820.14    14.901577 
   38500    2207.7428   -667.16714    291142.36    15.063259 
   39000    1927.9427   -659.80249    294747.48     14.99825 
   39500    2023.3025     -648.832    294491.12    14.973753 
   40000    1939.0989   -648.96532    295522.95    14.956625 
   40500    1942.3723   -632.41341    316873.46    14.862035 
   41000    1919.3337   -655.36504    290752.62     14.98782 
   41500    2040.1463   -634.74516    321042.32    14.747115 
   42000    2215.7801   -668.51566    301844.91    14.945799 
   42500    1927.8354   -655.08999    300513.73    14.937344 
   43000    2078.3807   -637.80988    314303.87     14.81524 
   43500    2062.6773   -649.86003    300139.49    14.943445 
   44000    2176.8639      -645.63    305352.31    14.901556 
   44500    1892.3064   -680.73057       293375    15.090518 
   45000    2048.3861   -650.02699    297830.22    14.860292 
   45500    2024.6324    -653.3397    304274.12    14.901509 
   46000      2029.37   -646.29124    302425.65    14.912409 
   46500    2079.2038   -635.45607     299736.7    14.683844 
   47000    2051.8816   -640.93503    304802.81    14.730712 
   47500    2147.2955   -634.61228    315864.69    14.593264 
   48000    1971.2954   -652.24511     290125.9    14.680642 
   48500    2017.2311   -638.04223    307964.63    14.591917 
   49000    2133.7766   -633.34974    317194.86    14.522779 
   49500    1903.2454    -659.5995    289625.58    14.548495 
   50000    1941.2377   -649.43865    291203.41    14.567296 
   50500    1974.2709   -643.64591    310820.35    14.507953 
   51000    2073.9705   -642.02422       292458    14.601188 
   51500     1885.678   -655.06857     283633.6    14.619955 
   52000    2036.5211   -633.81838    306214.72    14.639261 
   52500    1871.4861    -648.1376    285946.74    14.656097 
   53000    2157.6561   -647.02416    291935.57    14.648124 
   53500     2171.744    -646.5303     299317.6    14.591557 
   54000    1913.7391   -728.38989    308149.25    15.204985 
   54500    2029.5153   -713.80732    310064.74    14.948601 
   55000    2071.5578   -722.33297    300769.15    14.996168 
   55500    2206.2511   -715.71219     309678.6     14.93722 
   56000    2015.0278   -724.16949    299068.61    15.016118 
   56500    1970.4372   -743.81854    296294.41     15.29564 
   57000    2027.8984   -722.88184    304340.19     14.93573 
   57500    2164.8155   -728.67902    292890.58     14.97958 
   58000    2209.3368    -725.8798    300994.48    15.003951 
   58500    2143.3037   -726.32698    300188.23    15.018323 
   59000    2003.9885   -729.40861    288383.53     15.03902 
   59500     2063.726   -725.79256    297401.95    15.044703 
   60000    1936.1349   -726.08503    292285.18    15.005207 
   60500    2105.9409   -720.86851    301710.09    14.944358 
   61000    2108.5457   -722.72779    299000.21    14.958103 
   61500     1736.853   -720.32971    298999.02    14.934184 
   62000    2151.2576   -706.26719    318143.51    14.858523 
   62500    2065.3548   -722.58185    293301.62    15.041968 
   63000    2055.2901   -713.94957    301570.77    14.957891 
   63500    1958.5055   -714.19112     297877.1    14.985863 
   64000     1926.274   -710.95614    303534.23    14.910626 
   64500    1921.7222   -700.11733    300520.88    14.928157 
   65000    2039.8666   -709.66456    295502.49    15.063136 
   65500    2050.4777    -704.0497    294887.24    15.095537 
   66000    1956.8341   -744.28307    286669.33    15.393234 
   66500    2064.8609   -703.42731     303138.7    15.003088 
   67000    1773.5853   -694.16151     298879.7    15.013336 
   67500    1950.8722    -696.8937    291831.21    15.040327 
   68000    2007.9766   -680.02567    301448.89    15.025944 
   68500     1894.956   -643.38457    294736.98    14.830332 
   69000    1993.3432   -661.85277    296553.81    14.967233 
   69500    2014.0056   -668.08146    303352.86    14.992316 
   70000    2145.0377   -689.85536    297851.46    15.201257 
   70500    1990.6102   -633.40024    294165.77    14.799014 
   71000    1801.6014   -617.82007    315488.72    14.754937 
   71500     1942.826   -641.86293    299260.09    14.941496 
   72000    1916.7146   -633.40581    298578.56    14.865642 
   72500    1984.4452    -690.2316    291699.72    15.307147 
   73000     2018.749   -649.86459    299013.82    14.975016 
   73500    2238.2192   -670.39274    306801.01    15.082779 
   74000    2121.6466   -669.51295    303090.41    15.078428 
   74500    2124.2448   -684.33684    297659.85    15.143557 
   75000    2005.9562   -662.28836     300914.9    14.990789 
   75500    1936.5158   -688.31002    299554.19    15.116605 
   76000    2015.5303   -737.23505    289837.55    15.523378 
   76500     2034.466   -726.53037    312505.21    15.370601 
   77000    1943.4423   -726.47843    303019.63    15.437429 
   77500    1928.2703   -742.12389    297261.18    15.475208 
   78000    2256.1264   -731.81282    299137.78    15.505255 
   78500    2171.4368   -742.54538    296479.45    15.484467 
   79000    2068.4736   -647.67645    298563.99       14.876 
   79500    2137.4298   -631.57055    303361.81    14.754501 
   80000    2033.5866   -653.58836     295644.5    14.891713 
   80500    1998.3355   -687.15522    295206.92    15.200663 
   81000    2096.0928   -673.71375    301633.11    15.160958 
   81500    2028.6448    -612.3181    315157.97    14.758958 
   82000    1954.6314   -618.42209    294243.16    14.841509 
   82500    1850.6321   -617.62069    297136.42    14.798773 
   83000    2076.7275   -610.07082    306764.29    14.770434 
   83500     2005.551   -620.84273     294648.1    14.809906 
   84000     1884.635   -625.12808    290560.07    14.742769 
   84500    1962.9059   -621.52938    290836.47    14.796942 
   85000    2013.3701   -609.92286    308700.16    14.766011 
   85500    2078.6716   -612.88108    302264.64    14.803365 
   86000    1806.3851   -618.23575    287482.72    14.790914 
   86500    1849.5564    -610.5791    306028.04    14.750985 
   87000    2254.4753   -606.54603    317648.56    14.764733 
   87500    2168.0436   -602.62339    344849.37    14.686983 
   88000    2136.5643   -678.85524    297992.13    15.231321 
   88500    1910.2978   -674.97969    303724.32    15.106918 
   89000    1947.3192   -678.57985    302529.75    15.133476 
   89500    1961.4458   -680.97119    295086.97    15.235901 
   90000    2054.3071   -664.95769     303653.8      15.1593 
   90500    2159.9374   -677.27519     292609.4    15.325087 
   91000     2081.843   -668.07349    303315.42    15.165421 
   91500    2006.0414   -612.07816    340663.39     14.63361 
   92000     1951.583   -616.71133    308355.08    14.739422 
   92500    2226.7759   -620.68139    306629.72    14.751729 
   93000    2186.2479   -628.99277     294169.6    14.721579 
   93500     1940.718   -625.99357     298636.6    14.700364 
   94000    2021.6364   -678.52821    299040.83    15.074386 
   94500    1948.7467   -659.77062    299900.55    14.895954 
   95000    2056.9355   -632.62826     294753.2    14.696744 
   95500    2120.2963   -625.71387    299010.63    14.596758 
   96000    2018.5675   -616.53488    307755.49    14.662428 
   96500    2028.5377    -635.6003     291462.3    14.678225 
   97000    2155.5102    -626.6269     297642.6    14.569501 
   97500    1888.9996   -633.71215    286032.76    14.639981 
   98000    2120.8013   -635.38548    292529.93    14.640124 
   98500    2000.4699   -612.54979    309991.32    14.499099 
   99000    1885.0018   -617.59208    305018.33    14.549122 
   99500    2150.7033    -626.2818    294315.66    14.631043 
  100000    1989.6138   -631.41797    286571.05     14.79026 
  100500    2016.8856   -628.57081    289006.02    14.779634 
  101000    1993.4475   -623.84212    297783.22    14.734179 
  101500    1951.1891   -617.09828    297290.84    14.781927 
  102000    2005.4897   -727.73905    295838.81    15.547844 
  102500    2018.5289    -740.7014    285890.97    15.621125 
  103000    2027.3681   -734.67665    293611.33     15.59125 
  103500    1907.4796   -741.57521    294024.35    15.583123 
  104000    2011.4895   -740.43258     296309.1    15.605961 
  104500    1855.2976   -725.41131    311306.94    15.485257 
  105000    1833.7936   -731.82703    305386.78    15.500119 
  105500    2024.8043   -735.63961    305461.88    15.535077 
  106000    1940.0769   -732.99147    304456.23    15.568038 
  106500     1906.719   -739.73831    282446.18    15.626535 
  107000    1995.6293   -741.50659    302412.89    15.612773 
  107500    1994.9623   -687.64415    296240.01    15.168162 
  108000    2082.6654   -733.44564    279779.03    15.657846 
  108500    1962.2765   -738.75721    303426.92    15.583709 
  109000    2082.5541   -738.29497     299415.6    15.579584 
  109500    1990.4998   -739.44358    303918.26    15.522819 
  110000    1952.9872   -734.10708    304701.37    15.463022 
  110500    2002.7546   -736.11027    301015.43    15.472406 
  111000    2066.0544   -748.06534    293455.23    15.435818 
  111500    1863.0125   -730.66959     303985.7    15.290745 
  112000    2005.7575   -734.36489    311764.09    15.266687 
  112500     1902.189   -742.02004    312489.86    15.354571 
  113000    2040.6525   -746.98239    307718.01    15.412173 
  113500    1890.4168   -745.88622    291956.57    15.512105 
  114000    2001.6463   -748.97664    265446.58    15.500055 
  114500    2121.5999   -747.68704    306499.17    15.446928 
  115000    1991.4099   -726.65294    309393.76     15.29459 
  115500    1979.2505   -735.99884    309737.01    15.439612 
  116000    2063.8403   -739.97609    309578.29    15.447316 
  116500    2091.0639   -738.11059    297160.18    15.410316 
  117000    1922.3517   -739.73026    284595.68    15.513011 
  117500     2019.494   -738.75504    305694.38    15.472497 
  118000    1984.0469   -723.04796    294829.74    15.523644 
  118500    2128.4566    -743.9188     292029.9    15.574698 
  119000    1963.2642   -737.21785    304492.75    15.532968 
  119500    2340.4089   -745.85731       277668    15.667553 
  120000    1932.4514   -699.74306    294296.68    15.317112 
  120500    1988.9938   -738.98088    306084.22    15.644953 
  121000    2046.0953   -739.29721    301337.73    15.669903 
  121500    1907.3431   -737.24706    287329.83    15.713719 
  122000    2251.8878   -735.36704    301768.06    15.663927 
  122500     2082.144   -740.42644    306501.57    15.655784 
  123000    1968.3113   -749.52257    273950.26    15.708251 
  123500    2010.7128   -736.56611    303337.28    15.651061 
  124000    2191.6431   -742.14447    303542.92    15.654037 
  124500    1865.8945    -743.5749    300181.49    15.652774 
  125000     1919.661   -740.68722    302794.15    15.645884 
  125500    2086.0093   -737.01437    295256.29    15.691405 
  126000     2000.507   -739.05736    288800.13    15.709712 
  126500    1954.0759   -737.60253    316503.84    15.590917 
  127000     1860.112   -738.58276    303679.55    15.646529 
  127500    2096.2592   -738.83535    310192.75    15.640194 
  128000    1895.6948   -737.66785    303011.02    15.653294 
  128500    2295.4217   -736.11969    312743.27    15.638719 
  129000    2163.0945   -740.12457    312371.87    15.628273 
  129500    1929.9893   -744.73356    269370.21    15.744942 
  130000    1840.8262   -736.14515       315249    15.592606 
  130500    2060.9698   -741.61885    297235.56    15.663273 
  131000    2030.8223   -745.45541    298536.79    15.618245 
  131500    2165.7928   -751.80144    291371.02    15.653528 
  132000    1730.3512   -742.19941    308087.59    15.583983 
  132500    2099.1767   -723.97137    287806.79    15.677554 
  133000    2050.0039   -737.92172    306158.51    15.650994 
  133500    2003.9829   -741.75781    302169.37    15.661193 
  134000     2036.858    -741.8568    307113.14    15.509411 
  134500    1944.5895    -739.7073    294973.58    15.594302 
  135000    2039.3887   -726.07142    305752.78    15.380332 
  135500    2042.8377   -655.66085    304072.38    14.888272 
  136000    2237.2851   -669.38872    306838.88    14.981722 
  136500    1924.0177   -670.59072     310466.5    14.988512 
  137000     2012.519   -681.05583     298010.1    15.065545 
  137500    2042.4214   -686.43833    299883.67    15.059073 
  138000     2018.267    -643.0986    299940.03    14.769428 
  138500    1894.0759   -624.25435    287927.31    14.652322 
  139000    2113.2966   -617.80568    305169.65    14.665305 
  139500    1991.4979   -615.86278     298720.8    14.703334 
  140000    1994.9091   -608.99003    303802.03    14.720178 
  140500    2055.4424   -602.78993    315637.33    14.686436 
  141000    2011.0372   -613.73013    309655.33    14.684005 
  141500    2021.2687   -620.17025    292601.77    14.713912 
  142000    1981.9344   -629.58362     288640.8    14.758396 
  142500    2057.5527   -629.61456    287305.34    14.748742 
  143000    1995.1481   -625.27576    286553.07    14.720654 
  143500    1951.3041   -623.59216    296986.07    14.690608 
  144000    2221.5711     -624.601    287825.18    14.667674 
  144500    2047.1393   -617.16742    295992.52     14.64606 
  145000    2107.4833   -611.10362    323148.87    14.577648 
  145500    2193.8077   -620.60568     301998.2    14.622748 
  146000    2059.1836   -623.16533    307878.44    14.616246 
  146500    1999.0778   -620.13936    304898.44    14.609055 
  147000    1926.5051    -616.3015    314961.89    14.590871 
  147500    2059.8781   -617.56228       305242    14.550082 
  148000     1943.402   -613.78946    296120.02    14.485848 
  148500    2051.8278   -609.95881    298392.93    14.514016 
  149000    1957.4958    -626.0303    276155.64    14.482461 
  149500    1975.8001   -605.48289    350374.79    14.333369 
  150000    1944.5402   -617.42714    310405.48    14.346394 
  150500    2100.0049   -613.53553    316423.86    14.344609 
  151000    2124.3573   -622.96798     286660.7    14.361363 
  151500    2095.1524   -612.19944    290873.16    14.416992 
  152000    2094.7558   -615.91983    287955.09    14.387187 
  152500    2125.0959   -620.39277    291626.63    14.509749 
  153000    2009.7444   -634.09506    281202.05    14.564682 
  153500    2054.9499   -606.76968    342233.03    14.348029 
  154000     1868.009   -620.48459    265991.21     14.47373 
  154500    1810.2388   -616.49821    287572.64    14.367033 
  155000    1926.6984    -613.8621    286478.55    14.381941 
  155500    1903.4966   -610.11868    314346.28    14.373191 
  156000     1968.269   -614.83747    310508.77    14.355047 
  156500    1930.8874   -617.17789     291030.2    14.472042 
  157000    2017.7014   -625.11412    265701.91    14.429099 
  157500    2029.3861   -607.05621    311949.92    14.533911 
  158000    2015.4335   -618.31292    302069.72    14.510634 
  158500     1902.428   -613.17256    316685.95    14.493621 
  159000    2237.1505   -613.27298    298024.36    14.560481 
  159500    2018.8005   -621.09244    295075.42    14.542793 
  160000    1712.7213   -615.39033    291379.19    14.538191 
  160500    1943.8536   -631.24299    283765.31     14.65884 
  161000     2256.441   -725.95571    308915.76    15.303437 
  161500     2213.157   -734.29857    308169.25    15.432857 
  162000    2115.9584   -730.46408    306001.39    15.394054 
  162500    2011.1721   -719.52862    302581.31    15.298513 
  163000    2126.1597   -713.62377    303301.37    15.245785 
  163500    2125.9759   -748.35051    289884.48    15.561708 
  164000    2112.5736   -749.51144     274871.8    15.560095 
  164500     1974.888   -716.51885    302150.32    15.329728 
  165000     2036.809   -742.25467    301069.58    15.432097 
  165500    2064.2836   -740.43765    291335.15    15.497055 
  166000    2210.3585   -738.57208    302867.25    15.520907 
  166500    2004.0124    -750.7785    298290.12    15.523665 
  167000    1804.8304   -738.39184     290721.9    15.339989 
  167500    2079.8764   -742.73115    304290.19    15.366486 
  168000    1915.4949   -736.77297    312214.33    15.339061 
  168500    2115.9494   -746.30041    294776.63    15.367986 
  169000    1990.6099   -751.50375    299877.43    15.451712 
  169500    2236.2007   -753.22354    300626.64    15.405361 
  170000    1971.8348   -751.17524    282944.14    15.449813 
  170500    1917.7918   -746.67624     291294.7    15.364584 
  171000    2086.6867   -750.51192    277042.16    15.481564 
  171500    1987.0322   -725.93346    299665.58    15.358911 
  172000    2024.0851   -623.10537    296995.48    14.644928 
  172500     2095.703   -622.04066    293074.99    14.589885 
  173000    1941.7103   -624.58653    296459.11    14.632273 
  173500    2133.3195   -612.86895    308192.12    14.657265 
  174000     2091.223   -617.58824    292896.07    14.544368 
  174500    2066.5179   -611.95882    306227.04    14.494315 
  175000    2060.2869   -701.43698    297000.39    15.137239 
  175500    2160.3963   -676.10254    302636.49    14.887114 
  176000    1964.9063   -654.87412    297222.02    14.718176 
  176500    2089.9071   -616.81574    314101.82    14.595152 
  177000    1874.0641   -638.72661    293108.21    14.762024 
  177500     2063.835   -628.48145    299115.24    14.680076 
  178000    2102.1399   -627.90052    306046.74    14.697656 
  178500    1973.8156   -639.18307    293743.02     14.82415 
  179000    2173.7379   -616.27407    302717.69    14.658209 
  179500    2062.9816   -608.50647    305562.74    14.683863 
  180000    2276.3457   -620.16616    300272.67    14.716833 
  180500    1850.8712   -620.47521    294573.68    14.711418 
  181000    2099.5965   -627.88781    291475.85    14.738616 
  181500    2045.6978   -621.24592    300491.94    14.769787 
  182000    2007.8348   -620.33041    294635.25    14.697636 
  182500    1990.4824    -624.4258    294634.57    14.581722 
  183000    2010.0686   -610.37673     307786.7    14.495483 
  183500    2032.6715   -616.74408    288616.67    14.381583 
  184000     1898.266   -609.76905    301373.87    14.355525 
  184500    1942.6497   -609.95831    298324.23    14.436601 
  185000     1998.421   -617.03083    296564.57    14.594532 
  185500    2248.2833   -619.23914    301094.27    14.633316 
  186000    2014.5686   -623.16969    301516.19    14.645756 
  186500    1918.3209   -624.04059    296787.18    14.774408 
  187000    2094.0241   -675.25797     305371.7    15.054553 
  187500    2121.4162   -730.22673     297814.5    15.464468 
  188000    1803.0533   -629.26045    287966.77    14.758031 
  188500    1942.6732   -680.83971     295689.8    15.096633 
  189000    1996.6265   -687.42954    301286.39    15.150613 
  189500     2042.839   -737.13266    303343.73    15.511326 
  190000    2046.8182   -703.86955    304174.21    15.303539 
  190500    1880.1118   -688.39207    303459.35    15.214356 
  191000     1951.089   -670.05131    302216.65    15.189794 
  191500    2074.0062   -665.72957    304794.29    15.198336 
  192000    1951.9688   -675.89988    304429.41    15.267708 
  192500     1987.808   -686.64821    294228.86    15.328163 
  193000    1906.3642    -678.6048    300419.11    15.291513 
  193500    1940.3716     -680.328    305622.97    15.237168 
  194000    1942.4366   -697.24369    304120.41    15.339228 
  194500    1970.5914   -664.05377    304132.16    15.191238 
  195000    2051.5665    -661.0469    309644.76    15.278804 
  195500    2082.2462   -701.98629       299274    15.407422 
  196000    2078.1838   -692.24245    298752.99     15.38379 
  196500    2025.6741   -661.54405    300897.95    15.150623 
  197000    1993.5488   -649.28763    303612.86    15.128913 
  197500    1880.1279   -674.41403    304369.22     15.31725 
  198000    1960.5332   -691.66414    302714.21    15.295577 
  198500    1981.3272   -690.73406    300820.42     15.34499 
  199000    2084.3744   -688.07184    303945.98    15.365363 
  199500    2141.7077   -691.87764    289821.36    15.431191 
  200000     1978.294   -690.29174    300555.92    15.389913 
  200500    2011.7707   -680.72502     305243.9    15.277197 
  201000    1973.8741   -683.34988    301938.32    15.439383 
  201500    1931.3857   -685.52171    302681.41    15.421978 
  202000     1976.071   -675.60089    306391.27    15.415561 
  202500    2026.6253   -673.75072    305764.91    15.382445 
  203000    2082.1131   -686.14555    293702.22    15.456469 
  203500    2126.1063   -680.82264    308351.74     15.30628 
  204000    2006.3041   -681.88296     303942.6     15.32679 
  204500    2062.8691   -660.09043    302862.51    15.101749 
  205000     1985.716   -653.83722    299691.82     15.13048 
  205500    2021.6271   -680.03435    302140.29    15.399718 
  206000    2093.0258   -710.18468    297419.31    15.401047 
  206500    2072.8657   -692.93986    303077.74    15.366129 
  207000    1997.4667   -672.57571    299022.99    15.280998 
  207500    1896.8841     -711.746    295903.22    15.426927 
  208000    1907.7472   -671.11939     298328.7    15.065024 
  208500    1895.9029   -600.79405    295668.12    14.682795 
  209000    1924.7631   -592.29292     309705.5    14.641136 
  209500    2055.7551   -596.09324     303061.2    14.658356 
  210000    2048.0379   -639.28094    298924.44    14.879635 
  210500    1983.6965   -650.88036    297809.31    15.023778 
  211000    2013.2345   -666.83489    298260.08    14.941997 
  211500    1922.2149   -634.09562    296876.72    14.747199 
  212000    1951.3985   -609.16039    310158.81    14.486928 
  212500    2075.2043   -610.00872    303161.67    14.516536 
  213000    1946.9773   -710.00513    299799.58    15.242634 
  213500    2052.5326   -746.15612    289434.06     15.60517 
  214000    1989.2385   -748.51351    294833.12    15.632072 
  214500     2036.169   -663.02848    293758.21    15.027851 
  215000    1931.1643   -622.98827    296939.58    14.761715 
  215500    1840.9196   -598.56347    313245.38    14.636233 
  216000    1958.3655   -617.21266    288611.54    14.753301 
  216500    1950.0352   -662.37046    296839.46    14.945359 
  217000    1932.5872   -634.85472    295783.84    14.817666 
  217500    2073.3325   -617.73976    298041.82    14.686268 
  218000    1938.5931   -613.92436    287868.87    14.703465 
  218500    1994.2491   -664.34415     296189.1    15.017543 
  219000    1978.9519    -603.6881    301730.36    14.701604 
  219500    1971.9316   -622.83236    302984.79    14.740785 
  220000    2179.6324    -608.0715    301259.12    14.696112 
  220500    2229.4367   -698.76846     300049.6    15.412825 
  221000     2095.493   -653.96237    303230.24    15.172777 
  221500    2090.6438   -663.67845    294877.61    15.093287 
  222000    2017.7036   -721.03351    296425.92    15.483139 
  222500    2094.7086   -731.20364    305981.94    15.548255 
  223000    1970.3035   -730.69836    294814.47    15.547371 
  223500    1850.1896   -631.39853     298552.8     14.83492 
  224000     2065.334   -601.00411    302333.01    14.663609 
  224500    2005.5109   -624.11105    297525.96    14.840846 
  225000    1794.4572   -627.52204    292432.69    14.769473 
  225500    2116.5326   -623.99696     291280.7    14.821148 
  226000    2015.8702   -611.40976    296280.63    14.789038 
  226500    1919.0756   -592.88194    307892.29    14.585576 
  227000     1995.258   -607.08137    287167.15    14.674457 
  227500    2055.8574   -600.73405    289617.32    14.668492 
  228000    1938.5784   -590.18734    300123.17    14.688744 
  228500    1929.0502   -588.29648    322186.78    14.599733 
  229000    2071.4964   -591.11365    311092.15    14.610491 
  229500    1943.6845   -589.72931    308525.62    14.606235 
  230000    2045.5339   -586.53725    297004.15    14.653713 
  230500    2026.7233     -615.538    305710.88    14.673161 
  231000    2135.2344   -618.84034    291795.01    14.724439 
  231500    1871.7988   -656.57383    303197.45    14.950723 
  232000    2213.2542   -741.77235    308399.13    15.543741 
  232500    2100.0389   -725.04428    292775.37    15.440107 
  233000     2070.283   -716.10025    298980.25      15.1774 
  233500    1868.5744   -741.78795    305667.02    15.244473 
  234000    1939.3575   -706.83473    296833.75    14.929721 
  234500    2155.6784   -623.03519    298988.26    14.600267 
  235000    2108.4239   -656.96627     307183.5    14.766926 
  235500    1886.2861   -738.88754    302408.29    15.469913 
  236000    1984.9027   -748.76963    302651.79    15.602135 
  236500    2125.9138   -737.49434    305538.84    15.429828 
  237000    1843.7333   -679.37479    290304.62    14.933037 
  237500    2046.1019   -701.23696    301439.56    15.089258 
  238000    2139.2297   -714.01661    306761.07    15.081887 
  238500    1979.2391   -746.34986    307526.71    15.535754 
  239000    2048.6261   -743.03551    305411.71    15.541585 
  239500    1993.6735   -723.49267    297637.81    15.407896 
  240000    1844.6762   -746.67475    292656.64    15.635649 
  240500    1924.3623    -745.6313    309392.77    15.609124 
  241000    2040.4421    -747.8686    295298.22    15.644096 
  241500    1853.7693   -754.33308    279185.21    15.583033 
  242000    2066.0648    -710.6812    303245.06    15.188687 
  242500    1908.9668   -611.38209    305610.89    14.607045 
  243000     1859.097   -665.60201     307854.6     14.90829 
  243500    2052.5442   -661.43596    306716.19    14.840273 
  244000     1896.114   -716.83372    294743.28    15.161829 
  244500    2174.1345   -675.37772    300727.42    14.765032 
  245000    2023.9436   -692.48862    299773.09    14.850375 
  245500     1845.666    -732.3929    290626.69    15.154816 
  246000     2077.711    -758.4881    294714.01    15.409063 
  246500    1832.5215   -761.38928    299018.25    15.393785 
  247000    1983.2021   -756.00663    307485.82    15.362397 
  247500    2024.6949   -764.50077    275826.84    15.443036 
  248000     2076.859   -759.75094    303168.57      15.4027 
  248500    2047.2499   -752.57738    313976.97    15.330405 
  249000    2024.1824   -761.57424    296953.45    15.404082 
  249500    1904.9155   -758.56086    292954.29    15.396872 
  250000    1933.3275   -750.60607     311613.6    15.348047 
  250500    2123.7816   -743.82711    286717.57    15.277158 
  251000    1864.9713   -726.78059    302581.28    15.129154 
  251500    1961.4257   -719.25291    301376.08    15.054061 
  252000    1891.7474     -715.997    297962.27    15.216961 
  252500    2103.6275   -722.44424     305338.2    15.168647 
  253000    2104.6026    -710.9847    298082.91    15.159859 
  253500    2076.8558   -754.76992    293099.31    15.611442 
  254000    2060.4529   -676.74267    304250.54    14.844359 
  254500    2019.6949   -678.70701    298422.72    14.770081 
  255000    1916.7093   -681.98399    294655.38     14.71008 
  255500    2020.7927   -666.33636    301065.42    14.671128 
  256000    2110.0535   -678.48699    294454.32    14.752446 
  256500    1971.9213   -683.55133     296592.1    14.836179 
  257000    1862.2639   -603.93315    304745.43     14.42335 
  257500    2002.8193   -615.12684    309982.72    14.306754 
  258000    2145.2012   -606.53588    310966.89    14.426838 
  258500     2074.351   -660.65214    307557.06    14.650598 
  259000    1908.2045   -670.75842    296243.24    14.803683 
  259500    1985.3925   -625.76868    290097.79    14.633548 
  260000    2019.1918    -615.7463    308769.26    14.483706 
  260500    1950.6442   -637.91451    300598.88    14.762735 
  261000    2300.0953   -702.92721    299314.45    15.388678 
  261500    2009.5178   -637.99096    301820.29    14.759328 
  262000    2027.3689   -597.26253    313957.24    14.500407 
  262500    1862.4496   -619.58088    298366.75    14.616178 
  263000    2015.7435   -611.87441    305234.28    14.545182 
  263500    2035.0645   -608.41687    301629.47    14.495084 
  264000    2028.7119    -608.5562    297984.71    14.495388 
  264500    1943.3251   -648.59784    301716.75    14.752965 
  265000     1882.833   -721.35759    302860.34    15.175148 
  265500    1862.7742   -706.74658     295973.8    15.128397 
  266000    1841.6074   -755.51345    273789.83    15.628679 
  266500    2071.8766    -750.1919    294275.65    15.647321 
  267000    1956.3513   -748.10573    304607.62    15.580488 
  267500    1974.8985   -750.92545    309134.13    15.541685 
  268000     2010.409   -736.35507    300463.53    15.377168 
  268500    2159.5716   -664.36275    305831.23     14.91663 
  269000     2202.401   -689.88556    300384.84    15.136582 
  269500    1848.3757   -653.81243    299997.03    14.833098 
  270000    2016.2904   -721.70724    273612.37    15.212649 
  270500     1945.811   -665.67385    293933.88    14.719216 
  271000     1921.459   -650.28895    310484.12    14.618346 
  271500    1870.5433   -666.27845    294711.62    14.758283 
  272000    1935.9048   -652.85605    297800.84    14.671854 
  272500    1878.1385   -599.82996    310178.04    14.425203 
  273000    2053.1955   -727.83701    299350.32    15.407348 
  273500    2169.5428   -754.50409       295888    15.628112 
  274000    1784.3035   -748.29178    296806.54    15.625954 
  274500    2174.6444   -713.99787    301137.14    15.252687 
  275000    2234.2396   -729.10291    300507.64    15.236014 
  275500    1984.9001   -719.42764    293853.25    15.319895 
  276000    2185.5846   -722.73994    295383.42    15.255775 
  276500    2058.7686   -712.79544    303533.17    15.090395 
  277000    2038.6192   -697.10587    298310.66    15.014179 
  277500    2115.5492   -722.03847    302824.73    15.081994 
  278000    1935.9558   -754.46531    306956.99    15.500995 
  278500    2014.5788   -751.19932    283001.62    15.577422 
  279000    1944.5703   -756.95765     282475.6    15.667691 
  279500    2050.4273   -749.28746    300044.98    15.613655 
  280000     2090.541   -749.01767    307607.64    15.512685 
  280500    1911.9673   -745.77406    306148.55    15.552299 
  281000    1948.1249   -741.03959    307640.15    15.519825 
  281500    1954.3843   -710.95456    302055.27    15.130523 
  282000    1971.5769   -712.90764    298902.26    15.232883 
  282500    2236.0379   -711.64244    305618.75    15.248314 
  283000    2049.5602   -650.02362    304036.96    14.930744 
  283500      1997.59   -700.42785    300615.61     15.28193 
  284000    1993.4593   -625.59514    296910.84    14.619084 
  284500    2009.2343   -690.79745     298028.5    15.059376 
  285000    1984.0105   -649.35796    296578.88    14.810824 
  285500    2085.4407   -705.08837     305790.7    15.093693 
  286000    1923.5644   -654.39442    304926.88    14.796227 
  286500    2029.7745   -700.58021    297685.22     15.21574 
  287000    2063.0934    -708.7713     302288.5    15.178377 
  287500    1981.4508   -753.25501    297816.14    15.556195 
  288000    2065.2116   -724.65983    302336.57    15.193597 
  288500    2054.0657    -710.7939    306341.67    15.098212 
  289000    2059.5432   -743.77587    297093.15    15.422268 
  289500    1984.2517   -748.34749    305606.11    15.550137 
  290000    2018.9355   -740.19765    306902.49    15.440673 
  290500    1795.2457   -637.40103    303230.43    14.633114 
  291000     1996.274   -647.95089    296828.36    14.653407 
  291500    1892.0563   -620.62385    297858.79    14.469256 
  292000    1746.3364    -667.2415    290872.44    14.776012 
  292500    1937.1745   -616.80089    290751.17    14.631995 
  293000    1999.9172     -676.286     296865.9    14.988203 
  293500    1966.6688   -650.04863    300419.74    14.924924 
  294000    1892.9633   -649.19438    302666.35    14.840913 
  294500     1895.073   -636.59765    293058.74    14.775193 
  295000    1974.4095   -613.99438    297101.17    14.680612 
  295500    2053.0322   -618.10857    308345.88    14.626329 
  296000    2200.7757   -616.20402    294294.66    14.649897 
  296500    1928.0201    -623.7361    292336.98    14.639375 
  297000    2151.0653   -622.36167    304450.09    14.577436 
  297500    1955.0697   -646.45653    305380.94    14.608892 
  298000    1936.9504   -712.07146    305350.22    15.100696 
  298500    1874.3484   -746.06523    309747.53    15.527357 
  299000     2045.024   -758.53737    275473.57     15.64601 
  299500    1979.5154   -750.87764    307414.85    15.496504 
  300000    1895.0146   -751.77481    303872.34    15.584332 
  300500    2151.3715   -749.60192    310633.34    15.553257 
  301000    1957.0166   -735.17585     296354.4    15.435114 
  301500    2162.5184   -595.16875    319342.76     14.56985 
  302000     2006.071   -719.47141    297426.22    15.389447 
  302500    1953.6298   -691.63331    304513.98    15.385754 
  303000      1953.31   -704.45261    297384.93    15.471394 
  303500    2009.0761   -691.98861    295438.89    15.436553 
  304000    2217.7819   -698.28288    304190.28    15.451073 
  304500    2005.4309    -703.2653    304028.26    15.437765 
  305000     2018.313   -697.84187    301006.64    15.301946 
  305500    2154.0451   -631.20732    318626.94    15.006002 
  306000    1971.7702   -693.94842    296833.13    15.489897 
  306500    2180.6394   -693.52382    306868.47    15.416847 
  307000    1986.1139   -702.28716    296858.36    15.512474 
  307500    2230.0626   -671.64478    305978.54    15.356745 
  308000    1817.3415   -658.12127    296790.08    15.145609 
  308500    2024.0257   -637.26244    311319.89    15.077006 
  309000    2129.0091   -741.29173    302510.55    15.671714 
  309500    1913.0451   -679.04722    297323.28    15.146511 
  310000    1957.5447    -649.5053    305634.79    14.877309 
  310500    2067.0586   -706.34137    296385.67    15.389762 
  311000    2096.8742   -708.69803     300753.7    15.369746 
  311500    2236.9348   -712.83743    291752.11     15.60371 
  312000    2040.8122   -661.45755    293088.49    15.216978 
  312500    1797.2439   -702.73024    303956.73    15.396647 
  313000    2189.8633   -714.81058    294732.54    15.447059 
  313500    2015.5415   -703.11554    297865.31    15.377104 
  314000    1966.5364   -720.87307    305217.93    15.227445 
  314500    1952.9121    -714.3158    302257.23    15.239079 
  315000    1877.2877   -680.91508    299041.72    14.970016 
  315500    1837.9542   -726.26481     296133.1    15.282862 
  316000    2047.3581   -657.11115    304912.99    14.898236 
  316500    2067.8049   -693.78208       301814    15.028084 
  317000    2075.7091   -742.73507    308640.56    15.348994 
  317500    1852.2574   -725.69989    295615.81     15.16141 
  318000    1837.6831   -726.42391    291250.84    15.212279 
  318500    2098.3381   -719.97218    298631.34    15.110704 
  319000      2174.98   -734.66197    300505.22    15.221958 
  319500    1939.2009   -713.83426    302008.93    15.235743 
  320000    1940.4608   -703.21447    301985.29    15.230851 
  320500    1985.5089   -748.44293     306675.8    15.591737 
  321000    1927.4436   -747.30012     288794.1    15.679789 
  321500    2017.1492   -743.60156    299659.85      15.6401 
  322000    2038.5178    -714.8372    301151.46    15.198507 
  322500    1867.0034   -714.79277    295731.45     15.35062 
  323000    2008.1392   -739.87292    307587.14    15.382067 
  323500    1862.5132   -744.72879    309920.45    15.416306 
  324000    1904.5567   -691.52178    299216.71    15.069655 
  324500    1997.6844   -656.97472    304368.03    14.902368 
  325000    1992.8348   -652.60393    299298.42    14.940373 
  325500    2172.8391   -648.48643    298791.18    14.875079 
  326000    1966.3622   -718.88638     299852.3     15.23426 
  326500     1922.741   -718.45516    294410.43     15.31471 
  327000    1864.7917   -753.45542     312491.3     15.51545 
  327500    1911.5355   -750.42812    311273.07    15.452171 
  328000    1876.2462    -680.9742    297445.67    15.020015 
  328500    1957.0606   -614.60066     284970.9    14.657852 
  329000    2140.1246   -664.34246    296618.93    14.949635 
  329500    1981.4961   -592.40451    331076.24    14.531377 
  330000    2022.6324   -659.66368    297727.71    14.831853 
  330500    1984.6696   -667.69863     303694.4    14.923092 
  331000    1968.0099   -750.80087    288460.79    15.599138 
  331500    2142.3358   -709.54473    302635.29      15.2938 
  332000    1888.0306   -722.53807     298549.7    15.317336 
  332500    1909.9956   -749.97751    298471.71    15.633091 
  333000    1906.1732   -745.66262    274908.11    15.724547 
  333500    2077.5053   -742.95872    309699.71    15.584778 
  334000    2067.8105   -720.14843    302152.27    15.357713 
  334500    1912.1589   -700.47882    305002.63    15.301693 
  335000    2075.8962   -708.73894    299165.18     15.26467 
  335500    1941.7838   -722.93687    295162.96    15.402063 
  336000    1839.6278   -756.70867    285324.77    15.684067 
  336500    1939.3451   -752.24666    310401.91     15.53042 
  337000    2041.5511   -753.92049     290956.3    15.629105 
  337500    2004.6504   -752.61358     297748.6    15.616918 
  338000    2089.1292   -747.41154    305168.04    15.557879 
  338500    1964.9107   -751.16695    300573.16    15.634789 
  339000    1825.9528   -744.86758    298921.05    15.671493 
  339500    1996.2143   -743.81991    280052.66    15.697521 
  340000    2239.0276   -704.87141    304805.58    15.187004 
  340500    2345.9206   -733.28144    292874.47    15.517694 
  341000     1964.044   -648.83885    307919.23    14.650858 
  341500    1951.7799   -662.16721    296285.71    14.710496 
  342000    2142.7551    -667.0248    305894.54    14.656035 
  342500    2112.7072   -674.31044    299219.29    14.664446 
  343000    2063.4342   -675.51952    312065.64    14.576677 
  343500    2087.2779   -680.33308    299383.58    14.637927 
  344000    1896.6305   -683.65768    295249.85    14.661015 
  344500    2001.6483   -677.39874    291114.88    14.716147 
  345000    1934.4849   -660.55606    301905.21    14.628083 
  345500    1834.4088   -672.35787    303978.19    14.669654 
  346000    2082.7277   -683.96052    288041.32    14.690378 
  346500    2161.8055    -687.0967    294586.25    14.710386 
  347000    1881.0695    -655.9716    300116.06    14.640127 
  347500    1939.9496   -659.90177    297935.67    14.659649 
  348000    1895.9308     -738.046    288517.73    15.364854 
  348500    2130.9406   -734.80582    299023.43    15.441713 
  349000     2023.243   -654.67785    296458.09     14.84109 
  349500    2001.4173   -613.59906    289653.47    14.679763 
  350000    1938.8532   -621.36518    291837.52    14.764824 
  350500     1914.837   -711.66078    294321.25    15.369955 
  351000    2025.4784   -712.44053    303198.05    15.306297 
  351500    1828.8927   -757.06475    287882.72    15.613007 
  352000    2101.7918   -756.87141     282500.9    15.675198 
  352500    2019.6553   -752.68944    303466.99    15.621399 
  353000    2080.3187   -756.30537    297588.28    15.621082 
  353500    1969.5485   -756.00563    297436.15    15.633499 
  354000    2109.2192   -749.75361    307504.05    15.592148 
  354500    2097.4564   -710.54433    299832.11    15.400764 
  355000    2020.6623   -692.90814    294074.96    15.378835 
  355500    2010.4174   -662.23043    299106.45    15.071817 
  356000    2055.8723   -667.18162    299847.21    15.039391 
  356500    2198.2486   -691.43219    301180.07    15.326327 
  357000    2063.0951   -681.21914    299691.62    15.038125 
  357500    1887.6348   -664.87417    299352.22    14.840527 
  358000    2050.6727   -610.20281    297741.64    14.617536 
  358500    1909.7628   -618.66045    295891.12    14.661558 
  359000    2020.8657   -602.39465    303927.77    14.619243 
  359500    1947.9578   -605.93399    297318.99    14.697615 
  360000    1919.3412   -610.97296    291631.08    14.658728 
  360500    1911.6443   -589.52657     306001.8    14.626858 
  361000    2247.0169   -588.98403    316703.17    14.596568 
  361500    2067.2858   -598.60313     310381.2    14.600206 
  362000    2020.4085   -579.28145     313167.7    14.626253 
  362500    1956.9348   -587.92983    293899.84     14.61912 
  363000    1956.7277   -593.28428    292149.19    14.647746 
  363500    2011.4312   -584.03831    300329.18    14.632024 
  364000    2084.6047    -595.7113    282153.44    14.688727 
  364500    1878.4308   -585.21163    300760.38    14.590536 
  365000     1903.393   -584.79284    296315.65    14.615244 
  365500    2016.9176   -584.26946    297560.05    14.619986 
  366000     2088.571   -599.78121    294280.09    14.725036 
  366500    1998.8271   -585.00435    320106.91    14.582266 
  367000    2066.2404   -590.36893    285087.45    14.640079 
  367500    2129.9281   -584.30187    306890.71    14.615544 
  368000    1990.6985   -590.16754    301681.47    14.623281 
  368500    2042.8812   -588.84231     304274.3    14.620613 
  369000     2166.645   -591.22239    310376.58    14.594128 
  369500    1872.3484   -600.83157    296360.09    14.618173 
  370000     1962.945   -590.94056    304946.08    14.644809 
  370500    2027.9773   -586.01691    316843.77    14.553471 
  371000    1886.3181   -596.03359    301349.98    14.603233 
  371500    2046.3815   -609.94871    290387.79    14.682091 
  372000    1778.6892   -609.05645     282590.6    14.737933 
  372500    2035.4234   -646.17567    304517.75    15.027924 
  373000    2003.1846   -651.42842     302762.7    15.025749 
  373500    2021.0711   -631.78873    300207.84    14.792305 
  374000    2012.4684   -713.54198     297396.6    15.411284 
  374500    1908.2838   -641.36912    297217.65    14.837732 
  375000    1744.6365   -722.90873    298291.75    15.468304 
  375500    2070.7224    -747.7981    304044.79    15.642625 
  376000    1868.9555   -756.96659    295258.92    15.634468 
  376500    1868.4568   -749.65303    308181.91    15.631882 
  377000    2009.8509   -743.12871    302186.55    15.455747 
  377500     2209.725   -673.46237    300723.37    14.892355 
  378000    1898.6059   -650.68566    297147.01    14.734005 
  378500    2152.4763   -719.26958    297015.04    15.138395 
  379000    1958.0263   -662.66365    299783.23    14.851797 
  379500    2016.7532    -596.8219    307149.74    14.448291 
  380000    1998.4935   -652.34315    295632.13    14.693788 
  380500    1752.5032   -650.61216    297418.77    14.752205 
  381000    2047.5608   -699.48067    305438.53    14.980534 
  381500    1978.9109   -744.73403    312287.92    15.422061 
  382000    1954.5653   -754.01476     309730.1    15.556746 
  382500    2025.5431   -756.63921     292179.2    15.540825 
  383000    1815.5161   -754.21223    317331.67    15.489919 
  383500     2064.014   -748.92445    290278.45    15.480921 
  384000    2118.0458   -667.32567    300277.16     14.84287 
  384500    1859.4569   -615.80501    288608.11    14.755319 
  385000    2079.2637   -599.06225    295651.99    14.703669 
  385500    2075.6442   -596.42366    294405.41    14.708162 
  386000      1756.14    -647.9881    295452.21    15.159824 
  386500    2042.3622   -668.36814    297639.79    15.247989 
  387000         1945   -649.01458    302711.64    14.947732 
  387500    2135.4275   -655.62526    306209.47    14.952397 
  388000     2003.884   -629.02013    306957.02    14.892306 
  388500    1985.5945   -649.20048     297299.8    14.845895 
  389000    2048.4247   -666.39292     304376.9    14.961907 
  389500    1971.7136   -712.14061    282602.91    15.391902 
  390000    2117.5948   -711.05472    290763.75    15.511097 
  390500    1965.0508   -656.50204    302931.75    15.079583 
  391000    1906.9589   -653.69159    299410.15     14.89652 
  391500    1940.9464   -681.98887    296609.49    15.159697 
  392000    1938.5097   -663.42209    296547.34     15.23751 
  392500     1937.656    -650.8314     301745.7    15.131316 
  393000    2010.6881   -647.20177     298022.9    15.051095 
  393500    2291.7468   -654.04928    299502.16    15.168526 
  394000    2019.6644   -715.47238    297386.97    15.597375 
  394500    2029.5506   -727.98409    301868.17    15.669434 
  395000    1878.8523   -735.48337    307342.94     15.68242 
  395500    1808.5692    -655.9208     299616.1    15.068308 
  396000    1855.4985   -649.36482    297530.85    15.102115 
  396500    1994.8981   -650.75863    296697.99    15.103163 
  397000    1879.4092   -673.33725    302162.48    15.273209 
  397500    2083.9526   -708.83656     306792.2    15.360745 
  398000    2042.9611   -710.12308    307797.59    15.309621 
  398500    2107.1514   -694.66136    303272.24    15.179508 
  399000    2068.2281   -616.55848    296755.85    14.522202 
  399500    2107.9723         -657    293255.82    14.790245 
  400000    1957.4253   -664.65478    303491.04    14.942471 
  400500    1864.9452   -670.29655    297418.92    14.919529 
  401000    1983.0154   -715.98385     299803.9    15.154201 
  401500    2024.3812   -744.88866    291512.33    15.479577 
  402000    2068.6775   -757.73563    290473.89    15.523316 
  402500    2151.1527   -751.18361    301989.27    15.529176 
  403000      1847.18   -747.26039    287520.05    15.536025 
  403500    1980.5274   -668.07281    307163.47    14.818381 
  404000    1930.1396   -700.66085       304796      15.1161 
  404500    1972.9703   -630.82665    301955.82    14.625146 
  405000    2028.1406   -613.28216    299127.24    14.358094 
  405500    1841.6609   -614.70168    299010.01    14.336197 
  406000    2118.5897   -626.77208    316897.43    14.299394 
  406500    2121.2677   -618.81788    292264.68    14.347894 
  407000    1946.4633   -623.70158    299679.33    14.315648 
  407500    2073.5275   -683.09715    297756.37    14.713211 
  408000     2012.071   -710.67445     307748.2    14.925606 
  408500    1990.2201   -730.32777    290430.69    15.098056 
  409000    1884.4826     -716.995    306784.29    14.980195 
  409500      2070.17   -722.69525    297869.84    14.969963 
  410000    1748.4779   -724.93082     299673.9    15.013557 
  410500    1865.9369   -657.15442    300296.16     14.51641 
  411000    2120.6892   -670.86539    290416.24    14.699665 
  411500    1947.8335   -668.23252    296322.82    14.662504 
  412000    2017.1178   -654.83329    300685.88    14.656249 
  412500     2209.289   -659.28485    321551.55    14.536413 
  413000    1900.6829   -731.65621    295610.67    15.172018 
  413500    1973.4106   -718.76892    304575.27    15.088372 
  414000    1946.4281   -718.52441    297291.81    14.998664 
  414500    1888.1567   -670.36085     311153.8    14.603359 
  415000    2120.7389   -670.27287    298154.44    14.662541 
  415500    1889.1606   -651.48097    306960.32    14.620847 
  416000    2136.6317   -670.04873    295285.02    14.655802 
  416500    1907.3832   -664.21479    290493.07    14.690369 
  417000     2136.175   -648.12048    290795.96    14.707801 
  417500    2031.4927   -679.75673    288489.28    14.801899 
  418000     2077.519   -673.47166    291089.87    14.786844 
  418500    2065.5656   -656.66331    303825.75    14.635293 
  419000    1980.9988   -664.99297    302376.56    14.655812 
  419500    2076.0556   -688.35226    295539.67    14.788352 
  420000    2008.7495   -708.62443    305254.79    14.858855 
  420500    2136.1505   -718.65694    304617.74    14.959278 
  421000    2084.8689   -671.14533    286217.82    14.665708 
  421500    1988.9515   -645.68443    294400.08     14.70413 
  422000    2116.4756   -693.37719    300685.76    14.852451 
  422500    2049.7206   -678.42022    299631.64    14.756563 
  423000    1892.7189    -650.0816    298400.05    14.669975 
  423500    1898.0201   -663.95999    302476.12    14.622702 
  424000    2103.4929   -667.66846    303247.17    14.644103 
  424500    1864.4827   -695.65799    303018.41    14.792337 
  425000    1850.3267   -679.57883    304370.07    14.758135 
  425500    2116.9944   -703.21395    294317.91    14.819005 
  426000    1917.9342   -640.46172    302577.99    14.644422 
  426500    2176.4831   -653.32643    321397.19    14.584186 
  427000    1967.8773    -668.2888    309894.83     14.63255 
  427500    1854.0253   -664.08667    313207.05    14.592707 
  428000    2030.6452   -686.57371    303395.45     14.74225 
  428500    2043.3244   -677.34604    297994.01    14.709503 
  429000    1844.8152   -671.16472    296367.05    14.726588 
  429500    2175.9258   -667.82389    305094.62    14.638138 
  430000    2060.7032   -670.66498    310009.65    14.636462 
  430500    2273.1497   -701.50533     305312.8    14.845978 
  431000     1863.281   -721.01848    297639.19    15.099439 
  431500    2116.3273   -723.45813    311674.28    15.017246 
  432000    1980.0221   -697.81154    306400.42    14.856332 
  432500    2044.1083   -679.75184    271906.78     14.77082 
  433000     2005.806   -698.66662    301878.48    14.845154 
  433500    1952.3171   -713.24487    309046.22    14.927015 
  434000    2052.2839   -698.13178    305708.68    14.970516 
  434500    2062.0914   -728.13037    299457.46    15.069558 
  435000    1978.4694   -717.84141    298882.59    15.066463 
  435500    2055.5995    -723.0887    298123.24    15.112376 
  436000    1906.0941   -718.58531    296302.77    15.119689 
  436500    2004.7299   -600.50589    296307.16    14.438563 
  437000    2099.0264   -610.01594    292781.91    14.527561 
  437500    2159.7164   -596.98319    293881.84    14.403227 
  438000    1926.5599   -630.71482    294575.56    14.525026 
  438500    1872.4682   -690.63933    297554.01    14.779894 
  439000    1945.7928   -707.45839    303554.21    14.976336 
  439500    1815.9537   -672.06356    298163.76    14.891938 
  440000    2099.3203   -657.14055    301617.96    15.026203 
  440500    1938.6268   -656.98624    298402.71    14.991628 
  441000    2171.2863   -668.89052    299817.78    15.047661 
  441500    2018.9311   -669.46956    299190.77    15.094384 
  442000    2226.4119   -680.63406    300926.59    15.131878 
  442500     2148.451   -692.17151    297410.08    15.251462 
  443000    1797.7269    -610.4994       301414    14.764632 
  443500    2167.1181   -692.81046    299505.47    15.471124 
  444000    1869.1117   -694.83253    295258.77    15.499234 
  444500    2115.9017   -692.95634    302614.56    15.456077 
  445000    2040.8323   -705.87254    293361.57    15.530668 
  445500    2248.9545   -687.84762     295337.8    15.495823 
  446000      1951.98   -689.35287    299290.43    15.366464 
  446500    1846.3076    -693.2335    305712.91    15.404806 
  447000    2048.3297   -632.09821    309140.71    14.949554 
  447500    2057.9883   -619.14081     292791.2    14.732588 
  448000    2141.0421   -622.41735    303457.33     14.81896 
  448500    2043.3362   -635.40031    302904.81    14.934105 
  449000     2287.855   -638.82154     310402.9    14.948907 
  449500    1997.7849     -657.565    293497.47    15.110216 
  450000    2060.9027   -639.43126    307060.38     14.98439 
  450500    1917.7674    -655.4019    307178.25    14.907496 
  451000    1989.9331   -614.82207    291922.72    14.782137 
  451500    1872.1051   -579.20096    295506.17    14.650816 
  452000    2072.5252   -642.79144    299832.66    14.921378 
  452500    2040.8251   -699.19671    311412.05    15.145362 
  453000    2006.1671   -683.08782    300921.08    15.175741 
  453500    2153.3114   -674.65055    295201.47    15.101907 
  454000     1876.526   -658.74267    289557.46    15.014335 
  454500    1992.0539   -589.84083    304678.65    14.590314 
  455000    2061.5179   -618.87769    300570.45    14.799322 
  455500    2054.1131   -669.01607    298459.26    15.079183 
  456000    1969.3359   -644.86116    298430.54    14.837404 
  456500     1810.817   -589.92512    306818.36     14.61749 
  457000    1959.5219   -638.22806    303680.05    14.729849 
  457500    1917.3544   -640.19566     294417.6    14.756421 
  458000    1908.6096   -598.95264    305599.89    14.508038 
  458500    1988.2237   -700.59765    296075.24    15.095068 
  459000    2007.9519   -731.20299    291237.87    15.499991 
  459500    2001.9394   -667.65386    296567.92    14.891498 
  460000    1840.2424   -584.16339    310858.47    14.509323 
  460500    2073.6546   -686.62644    298899.78    15.028934 
  461000    2204.5487   -618.15021    295204.13    14.650597 
  461500    1971.0759   -596.62101    296179.95    14.650905 
  462000    2221.1109   -611.59433    299104.99     14.72792 
  462500    1825.6984   -608.82545    288375.32    14.728223 
  463000    1940.7351    -590.7597    300395.69    14.647961 
  463500    1905.7024   -637.51282    309988.67     15.02383 
  464000    1996.0045   -691.18696    301849.67    15.455745 
  464500    2106.5203   -704.51747    300938.03    15.480954 
  465000    2029.4643    -651.3887    300780.84    15.271134 
  465500    2100.2684   -649.60774    303705.23    15.106172 
  466000    1926.6325   -632.36045    304986.96    15.050211 
  466500    1851.1474   -686.94574    299649.27    15.423433 
  467000    2014.2095    -642.1396    296892.98    15.091291 
  467500    1872.2441   -699.31931    298315.63    15.545296 
  468000    1933.0157   -696.83843    300410.82    15.458219 
  468500    1767.9894   -700.51868    290006.91    15.481733 
  469000    1875.2126   -692.27566       301484    15.358245 
  469500    2000.6329   -697.84927     303641.2     15.26078 
  470000    1974.6498   -624.80884    303325.43    14.580298 
  470500    1851.6274   -642.48293    297096.34    14.727561 
  471000    1982.6691   -599.59173    296275.67    14.472608 
  471500    2017.8514     -613.797    301261.69     14.62697 
  472000    2133.8025   -674.94832    300130.25    14.929827 
  472500    2089.0269   -674.67622    307107.11    14.923178 
  473000     2012.633   -671.99632    300386.67    14.891851 
  473500    1929.1009   -730.46217    300108.46    15.413213 
  474000    2017.9845   -752.43784    288001.42    15.552263 
  474500     2142.369   -753.63556    307558.92    15.629938 
  475000    1765.2326    -756.8777    277733.93    15.713841 
  475500    1947.1227   -749.25371    302126.51    15.686479 
  476000    1861.1489   -753.71955    307013.27    15.620808 
  476500     1895.288   -754.42553    301891.17    15.650863 
  477000    1857.8688   -755.47996    272149.77    15.756396 
  477500     1947.752   -747.58431    301460.94    15.689518 
  478000    2077.1291   -746.05564    295722.66    15.743837 
  478500    2033.8782   -744.77334    303804.79    15.680693 
  479000    1991.4871   -755.15949    294068.62    15.715227 
  479500    2032.6511   -746.23685    297122.18    15.521256 
  480000    2112.5777   -709.43331    296524.47    15.232023 
  480500     2036.488   -718.00687    299249.65    15.280891 
  481000    2007.1214   -709.57491    298703.82    15.183127 
  481500    2043.4595   -713.17639    309328.38    15.139984 
  482000     1719.532   -729.70139    286261.24    15.305308 
  482500      2007.56   -708.18777    306294.76    15.082327 
  483000    1891.7274   -719.49066    295591.58     15.21855 
  483500     2155.133   -705.45901    306589.36    15.134005 
  484000    1922.7725    -718.3945    301170.57    15.232805 
  484500    2074.8948   -714.28711    300443.81     15.21724 
  485000    1908.5338   -718.50467    291804.21     15.28968 
  485500    2037.2254   -714.41048    300343.78    15.264216 
  486000    1912.7483   -709.94355    302489.04    15.235972 
  486500    2115.4835   -708.76046    308301.94    15.168906 
  487000    2062.2178   -714.93589    294739.61    15.251727 
  487500     1965.084   -706.35757    306758.22    15.131516 
  488000    1935.5566   -723.32051    294620.73    15.268942 
  488500    2113.7814   -699.97845    306460.26    15.123095 
  489000    2029.8542     -719.131    289621.88    15.253727 
  489500    2022.6328   -714.62277    300554.95    15.223105 
  490000    2068.7444   -717.31795    297710.87    15.154426 
  490500    2062.9589   -726.33986     294012.4    15.269684 
  491000    1880.8994    -716.1944    298004.94    15.278748 
  491500    1802.2022   -722.66924    297282.16    15.234299 
  492000    2008.6578   -689.55338    308633.66    15.030927 
  492500    1961.1352   -724.16767    291797.38    15.276999 
  493000    1872.7504   -724.60982    296564.95    15.230078 
  493500    1997.1382   -706.73665       306758     15.14656 
  494000    2161.5735   -726.75169     286052.5    15.315763 
  494500    1985.2379   -708.14029    301274.67    15.141372 
  495000    1978.1949    -724.9965    291683.81     15.26393 
  495500    2118.9042   -709.36292    307367.65    15.164479 
  496000    2108.0326   -729.80607    292331.75     15.20176 
  496500    1868.1653   -710.26605    307587.05    15.141158 
  497000    1942.6118   -710.26656    302381.83    15.145878 
  497500    2022.7809   -709.60095     296799.1    15.202142 
  498000    1945.1617   -649.36611    301206.28    14.885466 
  498500    2031.8006   -686.69378    308217.65    15.033188 
  499000    1965.3721   -708.77683    305441.57    15.179509 
  499500    1965.0542   -721.70409       296503    15.223997 
  500000    2025.9291   -701.85894    306862.98    15.065118 
  500500    1949.0711   -726.78998    287223.52     15.36277 
  501000    1963.9238   -710.94078    302830.81    15.147187 
  501500    2075.9848   -724.92745    297754.99    15.252994 
  502000    1973.3366   -715.60578    300832.74    15.187802 
  502500    2108.7453   -710.33195    302234.89    15.164071 
  503000    2029.3146   -700.66736     305502.7    15.211078 
  503500    2018.1662    -710.4048    303006.34    15.173357 
  504000    2095.7488   -697.41162    302712.94    15.186223 
  504500    2053.7974   -715.57764    293931.32    15.262285 
  505000    2018.4654   -712.51754    303549.41    15.184958 
  505500    1933.8109   -724.32024     295424.9    15.261016 
  506000    2100.9899   -712.72403    307444.55    15.171712 
  506500    1938.1365   -693.71117    309137.55    15.135103 
  507000    1915.6393   -718.18673    299837.65    15.291788 
  507500    1919.1006   -706.71134    306354.37    15.168417 
  508000    1918.0932   -702.88617    302457.94    15.131675 
  508500     1941.168   -698.02749    302383.37    15.102482 
  509000     1821.995    -720.8754    296555.34    15.279214 
  509500    2035.5539   -712.93314    298026.67    15.241443 
  510000    1977.3835   -720.00723    294886.42    15.233572 
  510500    1987.9118   -713.61491     299792.7    15.210931 
  511000     2189.525   -716.21135    305206.37    15.188851 
  511500    1992.0171   -701.54255    305292.34    15.051148 
  512000    2014.4921    -707.9083    308705.73    15.124208 
  512500    1787.8071   -713.95087    283516.31    15.201353 
  513000    2010.1516   -722.06706    302346.76    15.294559 
  513500    1879.2677   -716.15571    296837.51    15.198216 
  514000    2061.2943    -721.4199    296482.36    15.200622 
  514500    2031.6261   -726.08273    293470.19    15.257614 
  515000    1966.7642   -711.81783    304326.27    15.152805 
  515500    2034.8286   -711.42077    300184.08    15.158659 
  516000    2235.3874   -702.06949    303552.46    15.078058 
  516500    2130.7333   -714.38996    305418.34    15.161783 
  517000    2020.8426   -697.90701    312554.09    15.030821 
  517500    2143.1305   -705.27112    304486.33    15.122401 
  518000    2071.6517   -699.29352     309399.3    15.049299 
  518500    1925.0376   -698.11666    302018.42    15.095442 
  519000    1899.7606   -731.03105    293353.43    15.295872 
  519500    2098.5737   -726.10379    294794.75     15.29533 
  520000     2081.379   -691.84148    300568.45    14.965476 
  520500    2075.2838   -653.54155    294401.89    14.884229 
  521000    2037.9843   -669.01903    294616.65    14.867072 
  521500    2051.7098   -723.75524    295719.35    15.220757 
  522000    1962.4276   -749.57229    306237.21    15.453665 
  522500    1935.2045   -752.76956    310002.01    15.507732 
  523000     2059.973   -715.63209     305737.3    15.177312 
  523500    1935.2804   -731.14589    299780.08    15.183746 
  524000    1847.9523   -686.39895    292972.44    14.871168 
  524500    1942.6534   -698.37409    289467.82    14.917902 
  525000     1949.503   -707.07819    298239.74     15.02774 
  525500    2036.8796   -712.33913    299512.66    15.034421 
  526000    1978.1295   -710.47254    296914.41    15.075409 
  526500    1978.5568    -644.0328     312807.3    14.684337 
  527000     1992.335    -635.3166    284846.52    14.664835 
  527500    1973.7583   -649.87964    311947.53    14.708003 
  528000    2154.4243   -684.97405    314557.11    14.817325 
  528500    1927.1796   -727.49947    307485.25    15.118134 
  529000    2181.9456   -684.94572     314593.8    14.813512 
  529500    1966.5656   -666.40752    302378.37    14.759171 
  530000    2093.1682   -679.61556    283350.38    14.859265 
  530500    1870.2138   -697.05859    299790.97    14.937118 
  531000    1893.9078   -681.38681    308089.96    14.836473 
  531500    1932.0598    -686.2386    310895.62    14.824878 
  532000     1990.686   -693.65044    304122.71    14.882177 
  532500    1975.4583   -704.56978    278689.44    14.979671 
  533000    1912.9459   -703.80583    281216.45    14.985537 
  533500    2144.0162   -678.11181    306646.22    14.834998 
  534000    1934.6747   -700.52435    291627.73     14.94196 
  534500    2027.0766   -701.78717    293676.32     14.92938 
  535000    2145.9658   -722.59431    307188.49    15.123597 
  535500    1938.7466   -691.72999    301652.54    14.907146 
  536000    2150.9222   -668.88586    306891.13    14.824482 
  536500    2043.2878   -675.96933    310757.52    14.834575 
  537000    1936.8051    -720.1832    298411.71    15.108689 
  537500     2006.708   -733.22651    302941.87    15.206771 
  538000    1983.6814   -731.16722    299802.99     15.24729 
  538500    2104.6362   -719.70045    306227.57    15.139615 
  539000    2103.5864   -669.20773    325128.54    14.696049 
  539500     2141.039   -731.00595    307977.02    15.204508 
  540000    1935.7347   -686.61116    315141.86    14.790466 
  540500    2050.7093   -708.09386    297960.58    15.007438 
  541000    2035.5994   -682.76477    306633.63    14.860458 
  541500    1797.9087   -698.27851       300023    14.898557 
  542000    2164.3728   -719.53814    300602.83    15.027343 
  542500    2136.7713   -707.42007    300118.46    14.968659 
  543000    2083.8355   -732.24509    301585.53    15.252359 
  543500    2082.6582   -730.87155    299023.51     15.21734 
  544000     1962.956    -722.5366    295734.81    15.135619 
  544500    2170.7758   -738.55461    299778.83    15.188321 
  545000    2004.9778   -699.38608    299487.04    14.927919 
  545500    2042.7943   -678.16202    303676.98    14.830951 
  546000     1906.982   -683.06606    297315.13    14.837783 
  546500    1813.0153   -702.26435    290158.02    14.950916 
  547000     1823.202   -704.01525    288610.45    14.983361 
  547500    1980.3628   -694.21251    308838.05    14.889294 
  548000       2065.2   -649.18153    312140.58    14.707156 
  548500    2025.6646   -644.30512    307471.46    14.668598 
  549000    1778.4519   -647.04262    301191.26    14.761734 
  549500     1897.944   -684.15678    297565.36    14.832158 
  550000    2012.3779   -734.87091    295451.66    15.256673 
  550500    2197.5596   -728.61847    301940.68    15.214105 
  551000    1958.9061   -730.46524    299283.14    15.199439 
  551500    2018.8827   -744.10455    295457.12    15.315775 
  552000     1985.909   -740.63109    296116.86    15.262674 
  552500    1914.4033   -682.96519    303133.72     14.87322 
  553000    1916.4754   -733.24873    296429.59    15.213987 
  553500    2157.4448   -709.98983    304449.99    15.056236 
  554000    2175.9919   -686.64021    308855.25    14.875347 
  554500    2077.1099    -703.9707    299533.54    14.956399 
  555000    1891.7689   -705.57974    284683.43    15.005015 
  555500    2063.2229   -721.81679    294794.15    15.098347 
  556000    2214.0002   -695.34891    287832.07    14.911687 
  556500    2026.7811   -723.87247    289625.55    15.112306 
  557000    2034.8215   -726.82773    295530.31    15.182615 
  557500    2080.2956   -736.43879    302956.67    15.213732 
  558000    2039.2152   -673.66436    301759.15    14.818515 
  558500    2033.0186   -703.94485     304828.8    14.951228 
  559000    1796.8951   -737.59234    295909.74    15.288715 
  559500    2001.5131   -713.18961    299527.04    15.067329 
  560000     1988.092   -671.52621    297368.52    14.847934 
  560500    1997.8971   -731.89032    289405.55    15.271014 
  561000    1964.1341   -709.20867       302496    15.029619 
  561500    1896.4113   -709.06828    284437.28    15.006555 
  562000    2113.1333   -692.30511    305999.01    14.872104 
  562500    1833.5661   -731.29619    271765.24    15.241631 
  563000    2143.0702   -695.61329    300883.87    14.890145 
  563500     2086.251   -743.23243    298907.55    15.276058 
  564000    2078.7588   -705.12574    303489.42    14.951474 
  564500    2002.3129   -714.10227    300202.37    15.002586 
  565000    1845.9292   -662.79495    302879.07    14.787202 
  565500    2084.5866   -671.22083     300609.3    14.897247 
  566000     1889.378   -678.67167    301785.25    14.832655 
  566500    1946.2146   -715.08074    292614.13    15.061327 
  567000     1816.578    -701.7705    294439.71    15.005542 
  567500    1834.4996   -703.61486    304095.95    14.997104 
  568000     2088.324   -738.72035    292954.38    15.222705 
  568500    1952.3979   -732.19679    297643.43    15.270402 
  569000    2124.3564   -723.06388    302535.26    15.116988 
  569500    1939.3448   -731.84771    295698.39    15.160791 
  570000    2083.6074   -672.88397    308911.03    14.788255 
  570500    2051.5559   -677.76519     303859.5    14.760124 
  571000    2038.1789   -728.98241    305897.13    15.144145 
  571500    1875.9482   -734.80899    298861.49    15.269418 
  572000    2037.2068    -738.6217    278002.36    15.293482 
  572500    1745.9912   -703.18952    302598.12    14.965194 
  573000    2173.7333   -750.90228    296938.09     15.37556 
  573500    1946.4723   -676.62983    294881.87    14.817115 
  574000    1888.7216   -732.61808     297373.4     15.14181 
  574500    1957.4991    -689.2407    305199.32    14.872627 
  575000    2039.5118   -729.20083    294241.95    15.255742 
  575500     2006.346   -714.77482    304210.17    15.063857 
  576000    1993.8034    -727.3433    307214.86    15.163993 
  576500    1907.9634   -724.28236    288217.53    15.158069 
  577000    2113.9696   -724.93166    304464.03    15.159041 
  577500    1909.5306   -729.02902     303519.1    15.164013 
  578000    1960.6709    -682.6262     311532.5    14.831291 
  578500    1915.1347   -706.55771    288389.67    14.990089 
  579000    2229.8179   -695.34325    300446.91    14.903609 
  579500    1935.0583   -700.17177    280185.55    14.919982 
  580000    2130.7354   -646.57654    305083.89    14.755119 
  580500    2106.2162   -675.82632    285224.81    14.879431 
  581000    1965.5041    -655.7324    294885.76    14.820128 
  581500    1878.5598   -646.85795    296546.96    14.733208 
  582000    2174.0413   -699.66207    301520.41    15.096465 
  582500     2055.491   -650.20297    300147.06    14.718917 
  583000    2061.4269   -695.61696     303316.6    14.916721 
  583500    2014.0165   -669.33763    295769.99     14.82573 
  584000    1910.4104   -644.46702    305874.69    14.647996 
  584500    2107.1796   -646.94666    310635.61     14.68029 
  585000    2136.1449   -695.38763    294810.96    14.954098 
  585500    1773.4973   -697.84228    293431.38    15.002585 
  586000    1935.9218   -731.89106    302349.96    15.164228 
  586500     2009.293   -716.21773    306213.67    15.079127 
  587000    2086.3163   -692.54539    302207.36    14.909764 
  587500    2089.7323   -709.24629    299212.88    14.973664 
  588000     2063.141   -702.30289    309508.04    14.960768 
  588500    1923.1132   -704.63868    309424.46    14.931749 
  589000    1990.6922   -689.07599     300425.1    14.854989 
  589500    1928.5335   -698.31187    296987.17    14.921556 
  590000    1990.2867   -739.30377    302784.47    15.241941 
  590500    2143.6055   -728.55531    303788.95    15.162297 
  591000     2111.026    -717.6431    303873.29    15.091874 
  591500    1869.0328   -724.10629    304889.66    15.204332 
  592000    2252.3139   -737.01511    289042.32    15.260159 
  592500    2088.0433      -716.74    308903.85    15.088126 
  593000    1975.1112   -733.96438    296801.05    15.198765 
  593500    1979.6678   -720.90082    300251.16    15.152735 
  594000    1914.6221   -732.44052    302935.79    15.312741 
  594500    1974.3816    -739.8808    299981.09    15.349749 
  595000    1984.6428   -674.78401    303704.37    14.807989 
  595500    2041.3496   -697.17309    302676.42    14.946445 
  596000    1950.6389   -726.92518     306225.7    15.185178 
  596500    1923.4677   -711.94821    297835.71    15.011235 
  597000    2130.3684    -734.6783    288603.71    15.201142 
  597500    1762.1007   -721.59997    288175.97    15.079219 
  598000    1976.6155   -730.30567    300213.18     15.16869 
  598500    2123.0444   -718.69915    289247.54    15.046969 
  599000    1947.4648   -719.74757    303087.99    15.157184 
  599500    1941.9741   -681.79835    290103.52    14.829701 
  600000    1989.4199   -739.78054    290620.78    15.286686 
  600500    1890.1088   -705.45424    306856.28    14.985076 
  601000    1967.3911    -723.1996    296361.42    15.073841 
  601500    2009.6122   -731.93495    298499.53    15.226157 
  602000    2071.1531   -715.54482    302301.63    15.063038 
  602500     2189.454   -721.91827    303118.62    15.092228 
  603000    1824.5572   -710.76319    294256.44    15.037122 
  603500    1792.1266    -733.2378    286755.93    15.156887 
  604000    1999.2218   -692.92247    313499.46    14.903985 
  604500    2059.1626   -697.47472    290890.63    14.910285 
  605000    2263.5422   -731.16908    304241.48    15.232073 
  605500    2076.5726   -724.40692    306391.47    15.189179 
  606000    1875.5282   -731.10223    298393.18    15.206393 
  606500    2018.1847   -717.45441    285805.45     15.06224 
  607000    2006.1834   -741.07861    295970.93    15.336452 
  607500    2115.4552   -716.69552    287984.57    15.109664 
  608000    2081.5612   -672.41503    292404.97    14.901741 
  608500    2124.5807   -629.52006    302962.92    14.674717 
  609000    2105.1881   -706.73762    301695.95    14.979952 
  609500    2034.5873   -701.08821    307556.95    14.923296 
  610000    2165.3231   -632.65496    308653.54    14.647944 
  610500     1826.525   -660.60522    304858.61    14.738267 
  611000    1763.8365    -638.2763    295346.02    14.623608 
  611500    1887.1152    -758.4933    292343.12    15.555866 
  612000    2048.9402   -738.51109    300633.22    15.335821 
  612500     2127.336    -743.6111    306118.64    15.393612 
  613000    2071.3266   -652.58545    312227.82    14.685038 
  613500    1988.3682   -672.14961    299214.52    14.765753 
  614000    1949.0012   -727.29263    287163.93    15.122751 
  614500    2152.7648   -717.36338    307895.63     15.08986 
  615000    1830.7772   -716.03251    298868.36    15.034181 
  615500     2011.064   -704.77152    293437.51    15.057961 
  616000    1937.9908   -758.77642    296301.09     15.52404 
  616500    1976.4922   -706.84155    303114.38    14.959491 
  617000    2068.9195   -674.76133    306739.87    14.804721 
  617500    1940.1303   -655.08434    297097.99    14.693998 
  618000    1971.3997   -653.14238    300063.46    14.709222 
  618500    1836.8104   -636.86262    298492.45     14.66994 
  619000    2126.9828   -646.13697    302805.34    14.675553 
[...]
14848500      2105.27   -678.95798    299408.09    15.028097 
14849000      2115.22   -645.82138       302227    14.767151 
14849500    1934.9229   -667.37155    298107.54    14.866852 
14850000    1924.0372   -574.55409    293516.77    14.304511 
14850500    2109.1466   -606.77723    299528.67    14.443282 
14851000    1975.2508   -637.12429    298848.58    14.673478 
14851500    1902.4375   -723.07242    299493.02    15.208954 
14852000    1974.7361   -733.26962    305836.48    15.327861 
14852500    2086.6917   -757.11741    284289.33    15.427806 
14853000    2017.4031   -746.51671    291007.72     15.37426 
14853500    1957.6698   -719.35786    303596.73    15.258655 
14854000    2016.8486    -721.2703    284405.51    15.287257 
14854500    2119.0547   -705.74477    305465.15    15.235609 
14855000    2124.0973   -697.68893    299473.35    15.159172 
14855500    2016.9773   -716.81483    295348.38    15.160328 
14856000    1914.5496   -619.14886    294852.91    14.579028 
14856500    1931.4813   -673.17521     292781.8    14.711827 
14857000    2157.7097   -664.51098    296218.35    14.718902 
14857500    1909.1032   -669.78175    295265.97    14.673295 
14858000     2117.991   -686.64939    301348.59    14.692643 
14858500    1990.2204   -666.69528    302494.68    14.645796 
14859000     2006.991   -653.25984     308394.3    14.572125 
14859500    1989.5854    -677.1568    294002.51    14.661572 
14860000    1969.6551    -689.3273    299255.13    14.810462 
14860500    2136.4845   -718.06517     299151.1    15.161445 
14861000    2112.6013   -728.04435    305937.07    15.255688 
14861500    2090.7636   -684.42703     306246.6    15.095361 
14862000    1945.7066   -684.57977    297241.22    15.063231 
14862500    1932.6482   -642.70127     295858.8    14.696812 
14863000    2053.5017    -625.5098     306370.7    14.440597 
14863500    2096.5952   -651.55008    304588.44    14.722556 
14864000    2131.6886   -685.98931     302826.8    14.975671 
14864500     2043.507   -671.25464    299176.95    14.748576 
14865000    2134.5407   -667.21479    300318.92    14.874764 
14865500     1772.797   -659.78728    295242.29    14.706174 
14866000     1840.403   -680.59014    294783.26    15.009695 
14866500    1935.0067   -723.82293    307162.97    15.227862 
14867000    2123.8621    -709.4211    304538.37    15.196934 
14867500    2018.4635   -642.93631     303506.8    14.760546 
14868000    1937.2815   -709.95259     301193.6    15.319957 
14868500    1963.1709   -721.60836    309134.67    15.183965 
14869000     1925.674   -725.01826    303726.65    15.240027 
14869500    1981.6511   -753.01589    303845.47    15.496225 
14870000    1974.6415    -715.9847    307425.02    15.307113 
14870500    1918.1313    -630.8608    302337.43    14.628543 
14871000    2106.3128   -654.08147     304878.9    14.709899 
14871500    1924.3212    -649.5232    298703.52    14.820705 
14872000    2143.5474   -645.25883    294269.11    14.804215 
14872500    1980.4274   -638.71272    300203.52    14.911209 
14873000    1927.4541   -685.98885    301858.22    15.310802 
14873500    2140.4923   -716.92839    307188.32    15.402552 
14874000    1752.1623   -657.27992    296229.38    15.097605 
14874500    2211.8691   -695.02589    306995.39    15.284389 
14875000    2196.2169   -661.84997    306576.32    14.996388 
14875500    2237.1225   -668.93332    300305.64     15.23484 
14876000    1951.3983   -678.73383    295230.31    15.329907 
14876500    2100.8812   -701.56073    301618.81    15.442844 
14877000    2048.9015   -688.13763    297482.05    15.384252 
14877500    1981.3273   -673.12762    297964.64     15.31795 
14878000    1913.3186   -657.19602    300455.19    15.086806 
14878500    1892.2846   -690.78152    301681.46    15.386614 
14879000    1899.2361    -625.4997    300981.44    14.832669 
14879500    1899.8886   -656.98665     294564.2    15.142912 
14880000     1861.024   -728.91672    302324.62    15.616358 
14880500     2127.822    -717.1586     300601.1    15.500923 
14881000    2096.4153   -753.34259     298593.1    15.705484 
14881500     2073.608   -695.91099    304341.68    15.169626 
14882000    1931.0447    -736.2843    299045.66    15.550572 
14882500    2092.4932   -756.86609    294356.97    15.796822 
14883000    2047.3716   -754.29419    300549.81    15.691204 
14883500    1863.5096   -693.96645    299496.68    15.303218 
14884000     1993.527   -714.97053    283988.34    15.462696 
14884500     2063.577   -635.12087    300324.01    14.754902 
14885000    1935.9774   -659.40997    295346.87     14.98541 
14885500    1950.3322   -687.12607    301131.13    15.037896 
14886000    1904.3705   -741.81676    309791.19    15.363329 
14886500    2050.3497   -743.58948    310345.83    15.342138 
14887000    1987.2161   -760.54423    298091.43    15.554623 
14887500    2043.3077   -716.67208    298975.51    15.071713 
14888000    1876.7337   -735.11115    298135.54    15.297331 
14888500    1888.6033   -741.86537    294443.05    15.246836 
14889000    1957.5206   -704.55246    290515.77    14.972212 
14889500    1942.8472   -646.41443    298342.41    14.699139 
14890000    2014.2746   -674.51552    302669.74    14.750656 
14890500    1996.4774   -706.06668    280794.13    15.033003 
14891000    2125.1071   -647.50027    296942.78    14.706312 
14891500    1804.9469   -666.50209    300833.89    14.759716 
14892000    2040.7841   -668.12167    305467.09        14.71 
14892500    2073.7261   -724.01112    295859.08    15.112896 
14893000     1972.927   -700.60309    297686.93    14.998596 
14893500    2159.6325   -731.57948    303552.28    15.279766 
14894000    2075.7691   -724.32688    300597.04    15.308933 
14894500    2125.4238   -756.55742    309433.69     15.49497 
14895000    1996.1678   -736.41468     304482.1    15.263604 
14895500    1942.5772   -678.73258    299634.05    15.020415 
14896000    1919.8656   -631.30178     302891.8    14.759646 
14896500    2005.8003   -645.30466    304746.54    14.875459 
14897000    2040.1126   -705.65888     307763.7     15.17233 
14897500    1990.6848   -703.58444    306553.03    15.143318 
14898000    1966.2714   -717.15636    305326.48    15.226313 
14898500    2085.6778   -737.09281    305691.42    15.341989 
14899000    1943.9819   -701.29645    303919.74    15.251189 
14899500    1986.6509   -648.72206    302979.76    14.984248 
14900000    2114.1107   -683.94309    299563.45    15.207685 
14900500    2091.7592   -615.50664    306267.17    14.761914 
14901000    1988.8364   -680.45615    301120.37     15.23407 
14901500     1970.083   -711.47421    301054.59    15.460405 
14902000    2058.2962   -720.88649    300983.06    15.436271 
14902500    2083.8171    -703.8163    297484.99    15.321784 
14903000    2146.7611   -577.73916    311968.05    14.399777 
14903500    1874.8999   -579.09818    296538.81    14.436151 
14904000    2018.7199    -580.0968    303119.23    14.563812 
14904500     2087.736   -685.17142    299358.63    15.361454 
14905000    1900.8534   -662.96969    297732.98    15.221971 
14905500    2095.4908   -666.29887    299144.99    15.222403 
14906000    1985.6354   -655.30727    293253.41    15.033774 
14906500    1917.6124   -713.73984     291530.6    15.555042 
14907000    2010.3404   -642.79214    299506.38    14.955176 
14907500    1957.0023   -629.80951    302329.35    15.041657 
14908000    2101.0285   -632.88657    308151.06    15.140116 
14908500    2023.1734     -628.204     312827.2    15.010227 
14909000    1997.0406   -638.24687    299455.32    15.162741 
14909500    1939.8485   -710.28162    296211.77    15.727635 
14910000    2025.2856   -637.12398    299873.78    15.106808 
14910500    1998.5574   -660.16778    306343.07    15.215274 
14911000    1882.0746   -653.09773    305879.52    15.298994 
14911500    2076.8441   -691.55806    300330.45    15.649675 
14912000     1951.296   -680.92008    302937.69     15.49902 
14912500    2060.5614   -710.86574    303243.77    15.571582 
14913000     1967.735   -737.60221     292775.1    15.941168 
14913500    2013.2913    -668.4642    298337.28    15.300727 
14914000    2104.8916   -666.90323     302097.6    15.469628 
14914500    1968.3138   -682.06931    298378.06    15.539278 
14915000    2102.4271   -612.60353    307231.91    14.869485 
14915500    1777.9529   -586.22322    296363.63    14.691646 
14916000    2011.3305   -621.78188    300814.07    14.750101 
14916500    2033.6894   -630.54228    301103.44    14.703987 
14917000    1942.9718   -740.81605    305682.99      15.5315 
14917500    2012.3843   -756.51257    293547.37    15.779811 
14918000    1755.7256   -734.20188    301723.65    15.519085 
14918500    1998.5976   -744.18553     297787.8    15.795951 
14919000    2036.4262   -628.87298    297941.46    14.959909 
14919500    2084.7468   -592.42982     307926.8    14.728212 
14920000    2226.2502   -615.83102    311162.69    14.677094 
14920500    1946.5474   -646.46636    291265.97    14.828092 
14921000    2056.3311   -654.90961    294780.44    14.870073 
14921500     1946.435   -719.40438     298212.5    15.291243 
14922000    2142.5925   -736.93037    297704.83    15.464531 
14922500    2009.5777   -742.25065    299109.99    15.383956 
14923000    1905.8306   -712.03452    296443.79    15.144921 
14923500    1936.3222   -671.35903     300276.1    14.898955 
14924000    2246.9483   -686.10732    302394.34    15.042489 
14924500    1907.2177   -618.96892    298790.48    14.728343 
14925000    1862.0269   -608.12021     299394.6    14.811858 
14925500    1931.6718   -611.85856    296471.28     14.96802 
14926000    1995.4672   -640.13308    298825.61    15.161327 
14926500    1859.6071   -659.87832     295003.4    15.280291 
14927000    2097.4136    -663.6393    303605.18     15.30228 
14927500    2041.4978   -615.78734    302288.12    14.913945 
14928000    2062.9756   -722.15533    301529.82     15.82021 
14928500    2013.8571   -640.03455    297620.26     15.24309 
14929000      2040.67   -642.77457    301280.92    15.323011 
14929500    2113.5279   -646.41409    296741.48    15.202498 
14930000    1907.5054   -616.01374    306466.27    15.101839 
14930500    1981.9158   -691.56129    302912.14     15.34578 
14931000    1977.4734   -680.77946    297739.17    15.365024 
14931500    2160.5997   -626.97565    308106.79    14.974273 
14932000    2089.5396   -711.06311    290516.67    15.812495 
14932500    1809.0742   -660.49691    296647.33    15.404319 
14933000    1850.8643   -655.68908    302124.16    15.275434 
14933500    2175.4668   -640.30342    301990.44    15.249991 
14934000    1921.1566   -624.28288    294489.17    15.092847 
14934500     1927.682    -574.3136    298390.04    14.573649 
14935000    1950.7832    -581.6409    297962.96    14.688642 
14935500    2137.3327   -597.19743    298728.15    14.751237 
14936000    2106.8254   -580.31145    302793.22    14.561834 
14936500    1900.0128   -637.26984    299523.04    14.951911 
14937000    1968.4252   -588.74116    298237.36    14.670343 
14937500    1850.8843   -661.48977    296197.16    14.949053 
14938000     1913.799    -727.9837    302998.18    15.612406 
14938500    2178.6199   -752.86237    290506.02    15.877427 
14939000    2093.1115   -754.11226    300878.64      15.7263 
14939500      1993.11   -742.95348    298295.54    15.598196 
14940000    2081.4232   -748.28616    300596.24    15.618662 
14940500    2164.6802   -679.15119    299833.59    14.967087 
14941000    2003.5109   -664.79222    293977.41    14.847399 
14941500    2064.1712   -707.90422    297709.59    15.179399 
14942000    1900.0281   -685.39941    296645.63    15.160455 
14942500    1876.1649   -610.84153    295868.12    14.652767 
14943000     1848.494   -636.94347    307098.74    14.699345 
14943500     1856.846    -702.4841    296086.89    15.102328 
14944000     2159.641   -662.61038    300768.39    14.824642 
14944500     1891.429   -635.70134     293940.5    14.773752 
14945000    2021.2258   -650.97331    285276.86    14.924468 
14945500    1938.5962   -624.06528    297456.88    14.810076 
14946000    2120.2977   -612.17621    300307.94    14.796938 
14946500    1961.6059   -622.76594    301609.73     15.04165 
14947000    2147.8799    -630.7526    304029.92     15.04979 
14947500    1930.5051   -722.30724    290312.26    15.826824 
14948000    2114.5895   -660.55613    302656.71    15.290242 
14948500    1995.9308   -677.86639     303878.5    15.336458 
14949000    1856.0517   -683.43337    297698.54    15.512376 
14949500    2027.1323   -673.30434    298667.34    15.404927 
14950000    2039.5363   -697.70482    298951.34    15.648913 
14950500    2171.1635   -659.36523    298246.09    15.240292 
14951000    2084.1515   -640.86224    304234.91     15.14575 
14951500    2020.2768   -735.50782    283108.97    16.000918 
14952000    1870.5666   -728.59301    293971.86    15.882825 
14952500    1948.9538   -672.31695     302739.9    15.385329 
14953000    1998.7737   -669.38495    300981.12    15.362407 
14953500    2165.3572   -646.19886    301644.55    15.135037 
14954000     2221.913   -655.28954    305013.62    15.096454 
14954500     2058.226   -719.89546    297727.28    15.509545 
14955000    2081.8966   -665.02485    297542.79     15.11017 
14955500    2100.5887   -709.68005    294219.01    15.454156 
14956000    2070.4269   -744.89578     305066.1    15.536358 
14956500    1941.5712   -719.22735    287219.65    15.421691 
14957000    1873.1579    -720.7586     291730.7    15.442635 
14957500    1932.6534   -647.23564    308401.18    14.820911 
14958000    1936.7399   -631.63691    296247.77    14.530812 
14958500    1871.6732   -581.49975    323752.49    14.312429 
14959000    1881.3394   -649.56407    296601.31    14.734981 
14959500    1940.0422   -655.43024    301184.74    14.700002 
14960000    2130.4645   -592.71959    321338.43    14.306844 
14960500    2257.4756   -682.27881    303470.04    15.115458 
14961000    1873.3586   -705.49361    298606.63    15.482236 
14961500    1836.9074   -668.78326    298874.86    15.148534 
14962000    2021.8693   -690.30296    302359.68    15.108374 
14962500    1980.9725   -620.88342    304351.59    14.648593 
14963000    1737.7642   -669.20003    298590.35    15.007837 
14963500    2065.8399   -701.32516    306629.92    15.009405 
14964000    2060.0915   -574.76825     343164.6    14.327763 
14964500    2171.3906   -584.61539    299312.85    14.472085 
14965000    1983.4684    -679.1146    297477.25    15.113392 
14965500    2007.9801   -653.12348    306725.17    15.038311 
14966000    1833.0294   -726.37656    297638.22     15.30149 
14966500    2122.7806   -764.88352    290007.81    15.520136 
14967000    2013.2971   -715.65854    299933.42    15.048718 
14967500     1796.524   -748.28562    296251.72    15.414972 
14968000    2119.1016     -745.113    305641.25     15.44859 
14968500    2076.1168   -706.27781    299519.49    15.209137 
14969000    2053.2709   -718.01015    302242.17    15.173225 
14969500    1905.3529   -642.38778    301132.43    14.663252 
14970000    1946.1999   -691.38488    303879.42    14.844911 
14970500    1988.7009     -705.057    307281.71    14.928508 
14971000    1921.3557   -667.52456    299886.99    14.603601 
14971500    1846.2668   -672.69188     285269.3    14.706383 
14972000    1993.7903   -642.10897    294855.47     14.47048 
14972500    2009.2008   -729.41332    303194.13    14.970489 
14973000    1953.0967   -637.17991    312167.05    14.351026 
14973500    1956.1759   -682.28258    304927.39    14.623506 
14974000    2104.6268    -721.2357    299904.79    14.912717 
14974500    2033.1568   -730.93338    296478.19    14.948602 
14975000     1978.702   -635.00802    333435.27    14.295771 
14975500    2014.7247   -658.99125    294463.37    14.447955 
14976000    2046.5532   -707.46383     302638.8    14.770692 
14976500    2150.2379   -626.67283    317625.02     14.36417 
14977000    1947.3246   -622.87491    294983.25    14.399273 
14977500    1928.4024   -636.11108    293424.67    14.471303 
14978000    2004.7852   -617.54715    301923.58    14.499111 
14978500    2043.7783   -671.22411    297657.13    14.906605 
14979000    2107.4173   -692.02278    295026.19    14.897792 
14979500    1871.7169   -578.51817    284905.29    14.271458 
14980000    1939.9952   -682.65767    292029.59    14.749411 
14980500    2006.5749   -682.30021    298630.82     14.64202 
14981000    2041.6592   -672.52765    307271.87    14.626207 
14981500    2056.4206    -684.3461     298298.2    14.631557 
14982000    2006.6512   -700.01116    298160.42    14.684236 
14982500    1909.7455   -731.64335    286060.75    14.975407 
14983000    1790.2458   -704.53705    300742.41    14.963298 
14983500    2179.3265   -731.24636     288762.9    15.251231 
14984000    1832.9893   -740.70821    282196.86    15.392466 
14984500    1824.4137   -753.85154    306205.43    15.422374 
14985000    2011.5265   -746.04687     311809.9    15.389284 
14985500    2102.6771   -668.72698    298550.15    14.706253 
14986000    2022.0766   -649.00962    290878.25    14.427521 
14986500    2124.3293   -714.84774    301317.05    14.829653 
14987000     2110.521    -716.0939    298335.76    14.844029 
14987500    1942.0431   -728.54819    294248.31    14.979023 
14988000    1927.6054   -725.55485    288200.28     14.93585 
14988500    1966.1668   -721.80972    306693.19    14.945332 
14989000    1975.7509   -730.34364    296061.63    15.033122 
14989500    2220.2864   -710.00579    288130.77    14.917982 
14990000    2122.7399   -688.92503    276666.14    14.744006 
14990500    2024.9471   -639.68817    309466.32    14.494561 
14991000    1906.2895   -665.38553    298451.87    14.634747 
14991500    2109.2881   -680.43278    309651.33    14.749658 
14992000    1973.4166   -644.42148    294726.07    14.712225 
14992500      1883.82   -653.73786    293063.05    14.694162 
14993000    1841.4067   -669.11991    297704.57    14.796994 
14993500     2153.436   -756.57502    299359.69    15.534866 
14994000    2046.9946   -751.11493    307037.67    15.563185 
14994500    2151.2075   -689.84464    301323.99     15.00977 
14995000    1886.1388   -657.40334    299321.78    14.687522 
14995500    1879.5794   -739.52223    298089.72     15.27609 
14996000    2019.3243   -709.67752     298739.4    14.992525 
14996500    2021.5569   -728.47225    296971.27     15.15992 
14997000    1947.2792   -714.43959     300078.9    15.034091 
14997500    2021.1476   -730.13199    300317.35     15.19289 
14998000    1820.7802   -710.82359    293862.02    15.081493 
14998500    1838.4064   -667.37744    293436.22     14.70935 
14999000    2007.4491   -705.35087    301604.24     14.96747 
14999500    2097.1996   -699.38475    308707.84    14.934656 
15000000    1812.9068   -744.81496     300597.7    15.617835 
Loop time of 74490.3 on 6 procs for 15000000 steps with 250 atoms

Performance: 34.796 ns/day, 0.690 hours/ns, 201.369 timesteps/s
99.0% CPU use with 6 MPI tasks x no OpenMP threads

MPI task timing breakdown:
Section |  min time  |  avg time  |  max time  |%varavg| %total
---------------------------------------------------------------
Pair    | 3815.8     | 3889.9     | 4017.6     | 111.1 |  5.22
Neigh   | 108.13     | 110.46     | 112.5      |  16.8 |  0.15
Comm    | 886.72     | 1010.5     | 1087.9     | 217.9 |  1.36
Output  | 601.43     | 601.46     | 601.59     |   0.2 |  0.81
Modify  | 68818      | 68825      | 68831      |   2.0 | 92.39
Other   |            | 53.29      |            |       |  0.07

Nlocal:    41.6667 ave 44 max 39 min
Histogram: 1 0 0 0 2 0 1 0 1 1
Nghost:    1088.33 ave 1097 max 1074 min
Histogram: 1 0 0 1 0 0 0 1 2 1
Neighs:    3232.33 ave 3491 max 2939 min
Histogram: 1 0 1 1 0 0 0 1 1 1

Total # of neighbors = 19394
Ave neighs/atom = 77.576
Neighbor list builds = 752200
Dangerous builds = 1

write_data	data.final.${p_id}
write_data	data.final.0
Total wall time: 20:41:36
