LAMMPS (8 Feb 2019)
Processor partition = 3
echo both

include		in.partitions
variable p_id world   0 1 2 3 4 5
include		in.temp
variable	temperature equal 2000.
variable	tempDamp equal 0.1 # approx 0.1 ps
include		in.pressure
variable	pressure equal 300000.
variable	pressureDamp equal 1.0
include 	in.seed
variable	seed world 74581 93734 128321 21934 495716 871038
units		metal
include		in.box
read_data	data.equil.${p_id}
read_data	data.equil.3
  orthogonal box = (0.0744726 0.0744726 0.0744726) to (14.9255 14.9255 14.9255)
  1 by 2 by 3 MPI processor grid
  reading atoms ...
  250 atoms
  reading velocities ...
  250 velocities

variable 	mass equal 26.981539
mass            1 ${mass}
mass            1 26.981539
include 	in.setup
variable	out_freq equal 500
variable	out_freq2 equal 500

neigh_modify    delay 10 every 1
include		in.al
### Argon Potential Parameters ###
pair_style 	eam/alloy
pair_coeff 	* * Al99.eam.alloy Al

timestep	0.002 # According to Frenkel and Smit is 0.001

thermo          ${out_freq}
thermo          500
thermo_style 	custom step temp pe press lx


restart 	${out_freq} Restart.lmp.${p_id} Restart2.lmp.${p_id}
restart 	500 Restart.lmp.${p_id} Restart2.lmp.${p_id}
restart 	500 Restart.lmp.3 Restart2.lmp.${p_id}
restart 	500 Restart.lmp.3 Restart2.lmp.3



# NPT

include		in.dump
dump            myDump all atom ${out_freq2} dump.al.${p_id}
dump            myDump all atom 500 dump.al.${p_id}
dump            myDump all atom 500 dump.al.3
dump            myDcdDump all dcd ${out_freq2} out.${p_id}.dcd
dump            myDcdDump all dcd 500 out.${p_id}.dcd
dump            myDcdDump all dcd 500 out.3.dcd
dump_modify	myDump append yes
dump_modify     myDcdDump append yes


timer 		timeout 23:50:00 every 1000
New timer settings: style=normal  mode=nosync  timeout=23:50:00

fix             1 all plumed plumedfile plumed.start.dat outfile plumed.out.${p_id}
fix             1 all plumed plumedfile plumed.start.dat outfile plumed.out.3
fix             2 all nph iso ${pressure} ${pressure} ${pressureDamp}
fix             2 all nph iso 300000 ${pressure} ${pressureDamp}
fix             2 all nph iso 300000 300000 ${pressureDamp}
fix             2 all nph iso 300000 300000 1
fix             3 all temp/csvr ${temperature} ${temperature} ${tempDamp} ${seed}
fix             3 all temp/csvr 2000 ${temperature} ${tempDamp} ${seed}
fix             3 all temp/csvr 2000 2000 ${tempDamp} ${seed}
fix             3 all temp/csvr 2000 2000 0.1 ${seed}
fix             3 all temp/csvr 2000 2000 0.1 21934
fix		4 all momentum 10000 linear 1 1 1 angular

run             15000000 upto # 30 ns
Neighbor list info ...
  update every 1 steps, delay 10 steps, check yes
  max neighbors/atom: 2000, page size: 100000
  master list distance cutoff = 8.28721
  ghost atom cutoff = 8.28721
  binsize = 4.1436, bins = 4 4 4
  1 neighbor lists, perpetual/occasional/extra = 1 0 0
  (1) pair eam/alloy, perpetual
      attributes: half, newton on
      pair build: half/bin/atomonly/newton
      stencil: half/bin/3d/newton
      bin: standard
Per MPI rank memory allocation (min/avg/max) = 4.003 | 4.005 | 4.007 Mbytes
Step Temp PotEng Press Lx 
       0    1839.0285    -698.0627     324059.3    14.851055 
     500    2112.1766   -705.41382    300532.75    14.924173 
    1000    1887.8225   -706.21272       294461    14.978565 
    1500    1999.4102   -689.45414    315246.13    14.847305 
    2000    2038.7251   -708.45761     300035.5    15.070658 
    2500    1853.0211   -688.93569    310004.38    14.843366 
    3000    1789.3898   -691.15586     304890.1    14.867807 
    3500    2003.1819   -713.11953     295647.5    15.073611 
    4000    2130.7446   -711.60902    288497.06    15.112589 
    4500    1981.2878   -700.42053    298791.39    15.070739 
    5000    2148.1411   -688.62236    308090.37    14.997393 
    5500     2004.437   -691.45824    303366.78    15.058473 
    6000    1857.9169   -683.40318    300484.52    14.938502 
    6500    2127.1683   -685.72574    314077.08    14.990865 
    7000    2082.0516   -676.83205    306424.94    14.888339 
    7500     2038.915   -672.64288    301881.17    14.701535 
    8000    2034.1207   -675.37082    290316.99     14.74108 
    8500    2051.6046   -672.18085    293300.23    14.728907 
    9000    1984.3116   -666.92341    311806.01    14.652157 
    9500    1857.2986   -661.21856    308532.14    14.721416 
   10000    2044.9322   -664.95487    309214.19     14.81698 
   10500     2179.574   -717.36567    292055.31    15.258732 
   11000    1944.5826   -704.58709    297691.15    15.231895 
   11500    1943.3494   -711.48642    305681.32    15.198852 
   12000    1886.8329   -681.64193    296358.39    15.022221 
   12500    2120.9461   -666.36959    315221.96    14.895147 
   13000    1825.4195   -698.62204    295580.84    15.158355 
   13500    2140.6659   -678.88177    301503.86    14.971927 
   14000    1874.4019   -672.88026    295714.95    15.004758 
   14500    2209.6686   -667.99079    305572.86    14.942459 
   15000    2329.7115   -699.22435    304277.45    15.136115 
   15500    2144.5946   -665.48877    302789.03    14.909488 
   16000    2184.5529   -666.03118    291278.86    14.810719 
   16500    1911.2389   -662.46088    289363.77    14.892439 
   17000    1915.9255   -665.21304    277094.37    14.906261 
   17500    2078.9842   -681.27226     290091.6    15.102289 
   18000    1956.5382   -718.73676    299551.16    15.302089 
   18500    1986.6328   -723.10025    295998.88    15.341862 
   19000    2044.6071   -728.29968    287816.19    15.372773 
   19500    1844.2983   -724.39361    307266.26     15.29199 
   20000    1789.6765   -727.04253    308239.07    15.285257 
   20500    1944.0048   -729.97438    302429.62    15.291928 
   21000    1894.0812   -732.21585    294457.53    15.321326 
   21500    2047.5907   -724.27788     310803.8    15.298938 
   22000    1985.8998   -731.02381    310163.02    15.297787 
   22500    1853.7801    -731.3528    295222.69    15.294029 
   23000    2183.8509   -727.91545    309633.11    15.279573 
   23500     1996.504   -732.39668    285076.99    15.375641 
   24000    2010.1526   -724.81971    299282.21    15.358307 
   24500    1929.1981   -725.90977    290423.48    15.419212 
   25000    1950.9359   -731.06219    268404.39    15.469701 
   25500     1973.999   -726.33476    298068.77    15.359623 
   26000    2187.6224   -731.14237    304187.47    15.322903 
   26500    1945.2917   -735.24282    261257.35    15.431344 
   27000    1858.3496   -723.89275    314312.64    15.284169 
   27500    1946.3055   -736.12065    292174.23    15.357513 
   28000    1875.5458   -723.86471    308685.77    15.292978 
   28500    2121.1823   -736.28765    289801.71    15.332241 
   29000    2041.1168   -736.42685    310581.75    15.298627 
   29500    1853.8947   -740.35051    279661.63    15.334614 
   30000    1954.0222   -736.68413     293641.1    15.294805 
   30500    1989.7612    -732.4671     306191.1    15.275563 
   31000    2113.6248   -738.14841    301452.66     15.29946 
   31500    2006.6915   -735.52938    300183.97    15.345584 
   32000    1832.7619   -726.86293    299773.89    15.260167 
   32500    1941.2983   -735.55874    303572.09    15.317225 
   33000    1941.2801   -733.07702    293091.47    15.382009 
   33500    1893.0845   -732.39918    302652.96    15.307033 
   34000    2074.2066    -736.0835    294037.69    15.266051 
   34500      1984.28   -737.91962    299372.52    15.312647 
   35000    1907.2128    -733.1836    306312.95    15.045676 
   35500    2053.8737   -729.59507    306824.89    15.316958 
   36000    2285.8844   -744.44645    272613.88    15.405313 
   36500    1898.6282   -737.85752    262384.66    15.406198 
   37000    2075.5998   -732.62991    295434.29    15.373917 
   37500    2241.1398   -734.76989    300327.55    15.317543 
   38000    1955.8179   -731.32825       291765    15.382328 
   38500    2186.7737   -722.82287    298552.47    15.373869 
   39000    1925.0179   -722.78574    304407.49    15.335862 
   39500    2032.5553   -668.73876    296530.05    14.977572 
   40000     2126.752   -666.34221     300372.5     14.94407 
   40500    2023.3847   -667.39927     295551.4    14.948992 
   41000    2002.0175   -652.36408    283452.12    14.719277 
   41500    2082.2476   -651.24724    288730.54    14.602296 
   42000    2014.7076   -646.95961    285947.67    14.617396 
   42500    1911.0226   -650.54045     277985.5    14.582506 
   43000    2223.2917   -648.56415    288985.26    14.552023 
   43500    2093.2559   -636.61448    330144.28    14.499193 
   44000    2076.6727   -648.48186    302739.36    14.543524 
   44500    2059.5385   -640.92843    304593.15    14.537074 
   45000    1978.9288   -649.31667    293249.46    14.537135 
   45500    2222.1325   -645.20375    300553.23    14.525186 
   46000    1983.3036   -644.12573    317406.57    14.497794 
   46500    2035.6151    -653.1896    285726.39    14.567219 
   47000    2025.9058   -637.11882    318707.98    14.500621 
   47500    2243.2082   -640.30523     321658.3      14.4868 
   48000    2032.1504   -642.78126    294818.75    14.619285 
   48500    2099.3312   -648.31967    287664.54    14.630928 
   49000    1982.7853   -641.90143    295493.33    14.615777 
   49500    1950.5004   -647.60239    293003.84    14.548035 
   50000    1760.1643   -633.65003    313776.53       14.511 
   50500    2021.3411    -641.6141    294851.85    14.648652 
   51000      1901.67    -648.9263    299544.79    14.516213 
   51500    1900.4941    -642.0448    297008.63     14.54191 
   52000    1999.6293   -654.30008    281864.24    14.580763 
   52500    1895.4682   -638.08295    313173.77    14.570979 
   53000    1983.4841    -654.4071    289297.81    14.707329 
   53500    1976.0493   -647.25395     292044.2    14.639889 
   54000    1959.7979   -633.52869    310263.24    14.634077 
   54500     2001.954   -644.94337    290853.11    14.691135 
   55000    2016.0487   -632.65942    309466.84    14.660634 
   55500    1806.6583   -641.38491    301412.56    14.632389 
   56000    1843.3886   -656.85866    283827.53     14.72655 
   56500    1923.2711   -647.03955    301621.34     14.62381 
   57000    1855.7715   -630.42548    299756.49    14.621567 
   57500    2024.1055   -726.71116    307549.46    15.282089 
   58000     2220.322   -682.01302     307275.6    14.952462 
   58500    1943.1371   -729.88972     301152.6    15.230946 
   59000    2048.0454    -739.5855     297398.8    15.329331 
   59500    1872.5486    -722.3391    300237.87    15.328388 
   60000    2021.8993   -730.21668    306732.08    15.316988 
   60500    1807.3465    -735.2832    297452.33    15.315123 
   61000    2123.4755   -707.78936     308647.8    14.925207 
   61500    1971.1585   -719.02225    296337.18    15.001588 
   62000     1856.678   -718.08656    298565.83    14.995801 
   62500    1947.9269   -723.14046    297493.15    15.000164 
   63000    2001.4256   -712.93142     301563.7    14.936446 
   63500    1957.4523   -711.20923     303759.9     14.91181 
   64000    2049.3765    -755.1905    285488.44    15.367476 
   64500    2165.0557   -747.55463    298147.68    15.355226 
   65000    2225.7519   -727.62115    293762.21    15.349622 
   65500    2105.1714    -630.6877    320710.49    14.639194 
   66000    2067.7485   -738.50265    292518.94    15.468142 
   66500    1904.8308   -684.65211    303236.59    15.037734 
   67000    2066.7445   -669.44189    301576.66    15.046463 
   67500    2084.6533   -669.89612       301570    15.025605 
   68000    1860.8831   -722.91703    296340.85    15.465989 
   68500    1930.9161   -727.97545    291533.16    15.481425 
   69000    2145.7349   -732.08339    304865.18    15.433826 
   69500    1866.2743   -689.21528    302742.05    15.136055 
   70000    1946.6695   -675.63255    297205.07    15.075434 
   70500     2001.695    -676.6019     306191.6    15.055332 
   71000    1873.9136   -669.45956    292513.33     14.98314 
   71500    1938.3298   -633.96228    300463.36      14.7351 
   72000    2138.6042   -634.71184    297066.29    14.822752 
   72500    2032.2078   -681.68447    297119.46    15.095476 
   73000    2034.1581   -618.39885     310642.2    14.797838 
   73500    1971.1046   -631.66323     304243.6    14.828485 
   74000     1941.136   -627.09514    309394.52    14.751798 
   74500    2089.5145   -627.26815    314529.68    14.729489 
   75000    2084.9518   -695.71496    293302.61    15.171015 
   75500    1851.0525   -693.22648    294330.67    15.187033 
   76000    1963.5207   -616.17754    313315.04    14.709832 
   76500    2059.0601   -620.35729    309505.97    14.823067 
   77000    2026.0732   -615.54418    295036.54    14.866228 
   77500    2233.4559    -627.3993    288693.21    14.812433 
   78000    2038.9529   -614.16857    304356.87    14.748274 
   78500    1980.6782   -615.85925    297021.16     14.78564 
   79000    1831.1707   -630.62138    289211.52    14.831243 
   79500    2018.7533   -664.44625    305600.07     15.07888 
   80000    1956.4247   -677.23368    293320.43    15.223961 
   80500    1925.2877   -676.65622     289951.5    15.239788 
   81000     2185.658   -678.86283    304759.45    15.167561 
   81500    1929.8271   -673.01367    300023.49    15.117263 
   82000     1913.527   -670.74528    297025.32    15.201922 
   82500    1982.7847    -663.5072    308902.29    15.185714 
   83000    2045.1555   -661.30231    308103.82    15.159226 
   83500    2122.6623   -654.63265    307013.93    14.982719 
   84000    1808.5035   -679.00391     291640.7    15.265257 
   84500    2224.0546   -681.28835    295215.88    15.275876 
   85000     1989.162   -671.80681    300714.77    15.157049 
   85500    1980.5557   -675.10359    298252.53    15.223115 
   86000    1871.6347   -675.95167    299084.97     15.17493 
   86500    2054.7551    -674.5587    301910.37    15.199673 
   87000    1925.3221   -670.19252    300824.12    15.202368 
   87500    1947.9783   -670.24309    299106.77    15.175904 
   88000    2088.9588   -657.27461    309191.12    15.098525 
   88500    1917.1558    -645.3048    291913.92    14.900781 
   89000     2180.181   -612.46884    315222.89    14.719552 
   89500    1885.2634   -615.80092    303101.41    14.797285 
   90000    2132.1771   -610.97332    309618.26    14.727132 
   90500    2231.4865   -621.83282    285336.64    14.832822 
   91000    2060.0582   -618.01438    301777.56    14.736466 
   91500    2056.4806   -626.78414    292643.45    14.762123 
   92000    2250.5886    -637.8126    292715.22    14.802785 
   92500    2085.6954   -621.73014     309806.4    14.729021 
   93000    1903.1842   -651.30301    293156.51    14.860359 
   93500    1996.4104   -629.03676    293301.45    14.726912 
   94000    1882.9943   -623.55206    318021.73    14.582608 
   94500    2052.6349   -614.40398    328371.24    14.518004 
   95000    2090.1883   -620.28203     300695.2    14.581699 
   95500    1914.6097   -629.49705    295993.55    14.678037 
   96000    1944.3359   -684.30046    301304.39    14.976186 
   96500    2057.3603   -614.42479    324457.17    14.536951 
   97000    1818.6562    -619.1844    303254.92    14.677765 
   97500    2010.9833   -620.78924    304051.64    14.757917 
   98000    2084.0277   -619.64382     309460.9    14.772717 
   98500    2122.5875   -645.70598    301943.45    14.999532 
   99000    2075.9217   -674.15773    301913.67    15.203202 
   99500    1897.2056   -680.83573    291982.52    15.290295 
  100000    1927.4639   -662.62484    304959.08    15.140221 
  100500    2097.1065   -682.76799    299429.93    15.281691 
  101000    2178.7281   -679.74485    307212.42    15.169448 
  101500    1968.6888   -695.15768    294242.74     15.38187 
  102000    1917.4393   -687.98059    296755.85    15.318516 
  102500    2012.1539     -671.389    303035.55    15.177282 
  103000    1940.3588   -715.95791    308580.97    15.341202 
  103500    2047.2587   -738.11672    306433.07    15.493747 
  104000     2107.724   -730.81529    305481.54    15.507193 
  104500    2032.0987   -730.25496    308861.16    15.509847 
  105000     2065.957   -727.28453    307609.38    15.465739 
  105500    2096.5768   -737.62949    300257.39    15.517704 
  106000     1937.641   -737.87414    301031.53    15.461017 
  106500    2055.6617    -733.2653    312081.04    15.424914 
  107000    1963.7499   -737.85469    306583.78    15.419028 
  107500    2071.5401   -727.06162    308700.71     15.41114 
  108000     1942.521   -736.68114    301491.39    15.486623 
  108500    1835.8791   -728.95328    298972.94    15.464476 
  109000    1916.7913   -735.40595    306464.81    15.439508 
  109500    2100.5117    -740.5796    307828.32    15.484038 
  110000    1937.2771   -738.66101    308097.54    15.466495 
  110500     2039.399   -741.19072    298551.51    15.509616 
  111000    2007.0609   -741.47323    303947.54    15.481392 
  111500     1942.491   -736.46108    304718.15    15.516878 
  112000    1867.8543   -729.15614    304308.55    15.407525 
  112500    2035.0799   -738.06844    304326.67    15.485779 
  113000     2066.408   -734.80147    302223.96     15.47861 
  113500    2075.2921   -733.34169    297993.58    15.387486 
  114000    2182.2845    -748.8478    295380.13    15.405283 
  114500    2111.4933   -746.93342    299385.32    15.458736 
  115000    2216.5414   -748.90995    294352.85    15.426115 
  115500    2043.3405   -752.48003    295338.74    15.429843 
  116000    1990.6502   -756.11921    293084.22    15.435189 
  116500    2015.7451   -748.78272    317389.44    15.344912 
  117000    2086.8544   -757.74314    295653.07    15.371115 
  117500    1746.8614   -755.59377    308401.09     15.39061 
  118000    1958.1067   -756.40683    307689.45    15.395155 
  118500    2027.2013   -756.41553     301044.1    15.400001 
  119000    1931.4221   -747.21655    306592.35    15.407032 
  119500    1961.8604   -750.77018    297797.14    15.406475 
  120000    2057.3439   -757.26563    319988.82    15.357404 
  120500    1915.1743   -760.32494    291475.46    15.387762 
  121000    1879.4792   -752.17308    311750.97     15.33063 
  121500     2009.647    -757.2062    288659.92    15.396025 
  122000    1947.0091   -749.76223    308687.42    15.372351 
  122500    2082.9258    -754.4233       316555    15.344654 
  123000    1993.0444   -752.88519    292842.44    15.380531 
  123500    1905.1611    -753.8778    309780.14    15.354956 
  124000    1904.0719   -757.44826    295179.98    15.425078 
  124500    1899.7976   -757.35518     312589.3    15.369457 
  125000    2034.9511   -747.66755    306407.01    15.368026 
  125500    2080.6683   -747.27474    299465.82    15.364654 
  126000    2126.4073    -751.4102    316839.63    15.341763 
  126500    1898.7828   -749.54054    310108.85    15.357106 
  127000     1939.835   -757.74254    285002.96    15.412709 
  127500    1934.6987   -752.75848    318379.71    15.376549 
  128000    1956.0593   -746.61499    304774.63    15.326504 
  128500     1919.847   -750.30604    333292.24    15.342276 
  129000    1889.7713   -753.97872    285233.01     15.40758 
  129500    2012.3403   -744.45182    301941.88    15.371132 
  130000    1985.0873   -749.75378    295278.42    15.390088 
  130500    1949.3906    -732.4039    301303.62    15.352572 
  131000    2173.7893   -692.91821    299943.36    14.909179 
  131500    1920.5211   -679.97089    301656.25    14.941293 
  132000    2044.5916   -678.28072    309540.93    14.822707 
  132500    1898.2478   -698.10009    285890.45     14.91882 
  133000    1993.5858   -695.41455    281761.55    14.911744 
  133500    1985.5771   -697.22336    298926.25     14.86608 
  134000    1964.1098   -692.80676     293585.5    14.865464 
  134500    1972.1339   -692.37038    288775.67    14.854989 
  135000    1866.9837   -688.12433    297100.56    14.929367 
  135500    1986.6472   -678.70137    307927.29    14.931153 
  136000    2093.8258   -692.78826    296337.19     15.00503 
  136500    2064.2412   -669.15881    308102.54    14.955614 
  137000     2104.796    -687.7769    301324.22    14.994761 
  137500    1955.1226   -693.23257     297826.1    15.030431 
  138000    1982.5455   -696.67338    306028.85    14.875266 
  138500    1954.2623     -694.774    292975.81    14.950581 
  139000     1938.973   -702.21505    287370.85    14.943769 
  139500    1951.6955    -682.0108    311746.76    14.782283 
  140000    2016.3296   -690.44914    301431.01    14.856408 
  140500    1883.3542   -695.01039    292788.01    14.863221 
  141000    2056.3082   -669.39559    310818.29    14.853476 
  141500    2040.1581   -709.52494    298959.94    15.117899 
  142000    2167.0518   -718.72206    299115.19    15.183878 
  142500    1829.5124   -692.74075    294386.54    15.036323 
  143000    1825.8705   -699.77024    296648.66    15.118465 
  143500    1911.9251   -684.96344    299401.68     14.89457 
  144000     1978.525   -692.90308    300483.31    14.917899 
  144500    1953.5258   -702.91699    285373.51    14.945255 
  145000    2158.0565   -686.66923    302854.76    14.912683 
  145500    1909.0967   -678.59292    308160.56    14.811202 
  146000    1983.0253   -693.75579    303379.97    14.891959 
  146500    1955.2019   -692.33791    300989.25    14.901051 
  147000    1787.4534    -695.4915    300639.19    14.977472 
  147500    1953.8462   -694.84922    306860.77    14.914787 
  148000     1872.535   -687.98153    302103.33    14.847188 
  148500    2112.6389   -689.48219    297900.03    14.855841 
  149000    2068.9516   -695.11635    299350.61    14.881701 
  149500    1880.8212   -695.62176    298983.63     14.90747 
  150000    2165.1184   -698.07622    294871.07    14.985704 
  150500    2073.0196   -721.96964    299787.58    15.229708 
  151000    1949.2263   -685.46126    303438.97     15.12295 
  151500    2074.1235   -604.35348    323521.11    14.621377 
  152000    2021.9951   -616.63348    293245.05    14.702108 
  152500     2029.087    -627.1378    292078.01    14.776488 
  153000    1951.0328   -614.70991    290677.61    14.773595 
  153500    2071.0434   -604.13367    306655.86    14.651736 
  154000    2083.7056    -604.1566     322189.1    14.685444 
  154500    2040.2148   -610.30784    299239.87      14.7218 
  155000    2008.7935   -609.54905    308448.47    14.690159 
  155500    1989.5995   -649.70666    299520.96    14.965793 
  156000    1956.7387   -690.98692    297636.63    15.171187 
  156500    1940.4388   -723.07289    297455.36    15.404994 
  157000    2155.8604   -678.42192    302926.22    15.033473 
  157500    2212.5421    -737.4455    303901.27    15.484779 
  158000    1895.4001   -730.83289    298629.52    15.406015 
  158500    2001.6773   -745.98587    304425.82    15.432963 
  159000    2270.0994   -750.15575     296602.6     15.47933 
  159500    2114.0631   -732.27078    312962.48    15.318804 
  160000    2083.3885   -743.25295    307731.82     15.34644 
  160500    2015.9104   -747.60411    296357.09    15.403022 
  161000    1932.7137   -738.94313     311310.4    15.332135 
  161500    2130.3511   -731.96752    313171.99    15.303251 
  162000    1947.4258   -747.77543    303853.73    15.398635 
  162500    2002.2165   -738.76389    314453.01    15.262426 
  163000    1999.6657   -749.73929    301621.97    15.391317 
  163500    1978.9908   -749.84881    294857.16    15.437821 
  164000    2055.3044   -744.89409    292210.54    15.346499 
  164500    2027.7991   -751.84772     296400.3     15.38801 
  165000    1834.7559   -736.21518    310690.47    15.349237 
  165500    1878.4337   -743.36617    291555.12    15.370967 
  166000    1854.8336   -742.50864    317192.66    15.363559 
  166500    2049.7393   -729.21753     301775.2    15.157309 
  167000    1960.6574   -694.07282    299653.44    14.894221 
  167500    1992.7117   -737.55643    307290.49     15.34471 
  168000    2316.3667   -742.09124    295098.13    15.425816 
  168500     1925.425   -732.08592    311484.56    15.260394 
  169000    2180.0714   -745.68366    312433.82    15.355392 
  169500    1797.1371   -748.61911    304682.99     15.38766 
  170000    1958.3053   -747.24138    302162.03    15.339038 
  170500    1995.4662   -744.95428    306709.07    15.359318 
  171000    1956.5103   -748.31809     304361.7    15.382277 
  171500    2239.5678   -741.39645    316599.12    15.336913 
  172000    2159.7415   -704.42765    297364.26     14.95075 
  172500    1859.1773   -674.45577    318325.65    14.684564 
  173000    2036.2677    -684.6709    308800.37     14.74273 
  173500    1840.5521    -696.7482    260584.99    14.663586 
  174000    2093.0116   -689.22547    288077.62    14.674164 
  174500     1901.234   -689.57615    284566.54    14.648182 
  175000    2139.9233   -694.28428    275718.48      14.6578 
  175500    1918.9533   -686.48861    296577.22    14.633146 
  176000    1966.1922   -691.80953    295641.66    14.810549 
  176500     2116.601   -694.62366    299008.92    14.866737 
  177000    2130.1952   -684.82704    305658.85    14.791359 
  177500    2052.5612   -701.46416    289026.96    14.863903 
  178000    1905.1365   -679.50641    306151.06    14.827718 
  178500    2096.1669   -687.47279    294647.11    14.654056 
  179000    1929.3652   -691.28453    290671.27    14.724409 
  179500    2009.8015   -682.31736    307332.22    14.745087 
  180000    1961.4595   -680.80007    303554.08    14.763449 
  180500    1884.1453   -716.69774    295328.53    15.044794 
  181000    2051.1306   -680.10885    310025.78    14.627397 
  181500    1901.3395   -686.05904    311269.16    14.598603 
  182000    2152.8104   -683.86668    287211.34    14.688034 
  182500    2002.8446   -689.35927    288712.55    14.637242 
  183000    2164.7222   -688.47542    294576.34    14.632245 
  183500    2045.9108   -687.61425    293968.99    14.660945 
  184000    2065.0477   -685.54441    302583.02    14.629788 
  184500     2004.592   -682.24134    317100.92    14.735155 
  185000    1961.9424   -691.68088    294248.79    14.888097 
  185500    1964.5549   -685.30536    300650.23    14.824435 
  186000    2210.7011   -684.08588    301467.09    14.762079 
  186500    2028.7147   -689.00342    296282.26    14.696044 
  187000    1977.9196   -681.60663    303384.82    14.634087 
  187500    2155.9896   -685.90733    297876.33    14.665469 
  188000    2088.5328   -689.97034    296668.04    14.838002 
  188500    1929.0581   -672.58166     301765.2     14.80513 
  189000    2037.5625   -681.73372     311686.9    14.708958 
  189500    1943.7384   -677.39847    305277.96    14.834459 
  190000    2012.4398   -677.18775    301456.29    14.921082 
  190500    2225.7912   -738.54614    296520.08    15.454667 
  191000    2028.2509   -643.19032    299157.42    14.816126 
  191500    2262.3247   -616.86228    308152.79    14.571942 
  192000    2059.0981   -610.18196    306821.59    14.591295 
  192500    1981.5094    -643.6219    297353.11    14.723748 
  193000    1886.4193   -681.32154    288792.21    14.980979 
  193500    1993.5795   -689.12521    301930.04    15.015516 
  194000    1879.4288   -688.87865    301566.95    15.192808 
  194500     2173.442   -679.44639    302921.63    15.255087 
  195000    2114.5851   -693.80143    301653.46    15.358785 
  195500    2125.1774   -704.10082    285990.09    15.455963 
  196000    2012.5002   -616.44824     298196.6    14.745149 
  196500    2057.8078   -611.69865    298647.87    14.721981 
  197000    2043.8205   -611.62995    306649.01    14.643645 
  197500     1808.545   -610.82667    291780.82    14.707339 
  198000    1867.9264   -624.29251    296021.69    14.722962 
  198500     1868.561   -612.79755    289213.31    14.738458 
  199000    2118.3511   -596.53399    296862.41     14.72694 
  199500    1967.0495   -611.88046    291136.73    14.722629 
  200000    1903.1026   -668.17071     298750.2    15.052566 
  200500    2039.5224   -661.00255    302047.77    15.278201 
  201000    1860.1455    -673.7539    306153.66    15.331469 
  201500    2059.2609   -682.68873    304511.18    15.302672 
  202000    1913.3511   -698.94633    290854.76    15.436338 
  202500    1842.5374    -689.9007    296314.82    15.422123 
  203000    1876.2959   -673.28477    297859.34    15.283001 
  203500    2025.0009    -644.1499    306467.46    15.121728 
  204000    2076.0789   -701.72933    294696.57    15.409222 
  204500    2102.3674   -698.45228    298562.01    15.368575 
  205000    1965.6771   -689.89388     308589.2    15.275338 
  205500     2110.425   -692.07595    299081.59    15.363774 
  206000    1950.2454   -665.60946    298954.06    15.212644 
  206500    1978.3016     -688.274     300403.6    15.332694 
  207000    2014.7846   -690.54422    305169.42    15.360474 
  207500    1956.5554   -678.58733    304105.55    15.380089 
  208000    1964.2482   -681.83577    305975.69    15.250561 
  208500    1899.1447   -672.32779    305900.04     15.25476 
  209000    2202.4419   -685.21155    305691.99    15.417889 
  209500    2182.8287    -697.4182    293831.81    15.447855 
  210000    2119.2704   -698.51279    297178.84    15.442396 
  210500    1993.6359   -666.54104    296753.34    15.159699 
  211000    2176.5559   -626.25528    295668.31    14.747202 
  211500    1914.8963   -619.51736    296212.85    14.743537 
  212000    2074.1513   -662.06505    300767.85    15.089714 
  212500    2130.9235   -594.36707    322911.25    14.670924 
  213000    2127.4034   -619.21167    293284.87    14.744469 
  213500    1884.4501   -686.60526    299662.65     15.25095 
  214000      1932.52   -688.82779    299541.92    15.371906 
  214500    1943.1989   -686.34393    298805.33     15.38961 
  215000    2097.2471   -714.13137    298737.97    15.415608 
  215500    2077.5241   -707.56077    297375.45    15.317602 
  216000     1829.886     -705.104       291830    15.438059 
  216500     2267.332   -685.02479    303345.82    15.214601 
  217000    1963.7577   -617.30506    287438.75    14.768837 
  217500    2052.0043   -614.25101    298029.78    14.707951 
  218000    1905.0966   -626.48194    295451.12    14.732024 
  218500    1956.5366   -662.98256    290884.07    15.102868 
  219000     1931.228    -636.8606    295335.24    14.820754 
  219500    1976.0197   -610.22279    301744.35    14.659682 
  220000    2163.0986   -608.09792    309516.96    14.697473 
  220500     2036.595   -621.68307    304725.57    14.714492 
  221000    2138.9235   -617.26935    300986.59    14.663564 
  221500    1929.4178   -632.22362    296079.32    14.831609 
  222000    1898.8338   -616.29111    298065.81     14.74222 
  222500     2216.602   -601.43424    317181.67    14.646836 
  223000    1956.3414   -652.01262    299729.14     14.94328 
  223500    2047.3739   -607.15628    311677.72    14.632233 
  224000     1824.411    -629.2467    301369.57    14.700663 
  224500    2057.5027   -611.43635    299401.78    14.664177 
  225000    1933.0474   -691.12041     298136.2    15.007953 
  225500    1999.6672   -757.38473    291479.11    15.595985 
  226000    1851.6971    -676.1048    304442.44    14.896252 
  226500    1925.5738   -659.16673    302548.36    14.837926 
  227000    2049.9616   -663.25031    305835.94    14.883091 
  227500     1928.897   -674.77848    304191.89    14.927017 
  228000    2068.8581   -665.18819    304207.99    14.866404 
  228500    1968.6931   -672.62769    306616.72    14.880829 
  229000     2019.762   -746.21899    308104.03    15.499321 
  229500    1969.7237   -718.00795    300454.41    15.363603 
  230000    2093.0741   -754.68946    278510.18     15.70295 
  230500    2010.4941   -746.84103    305823.03    15.644171 
  231000    1826.7972   -747.66751    298998.57    15.688148 
  231500    1980.6601   -742.02962    303487.04     15.55574 
  232000    1910.6456   -746.65776    284719.93    15.696872 
  232500    1972.5033   -750.91561    298183.03    15.598958 
  233000    2120.6651   -750.52024    293723.76    15.630774 
  233500     2111.905    -747.4402    301177.46    15.610415 
  234000    2105.9581   -747.75753    304134.71    15.600383 
  234500    1928.6992   -746.83665    296589.28      15.5439 
  235000    2202.6494   -631.64979     298781.3    14.622561 
  235500     2008.193   -610.71164       313616    14.523896 
  236000    1940.7777   -606.58871    298401.87    14.519133 
  236500    1876.0995   -680.24223    297109.74    14.991979 
  237000    2011.7656   -686.77694     301484.5    14.862175 
  237500    1896.4226   -651.13656     303679.3    14.648499 
  238000    1894.4335   -671.62309    306015.51     14.87245 
  238500    2104.8244   -712.09503    297700.88    15.305001 
  239000    2129.0478   -747.66428    299035.56    15.630642 
  239500    2101.5956   -745.31192    293858.98     15.69609 
  240000    2108.2727   -742.37804    312424.77    15.663985 
  240500    2216.7224     -734.428    315280.79    15.618422 
  241000    2136.5155   -732.60694    302622.33    15.677832 
  241500    2074.0404   -754.44452    295268.35      15.6639 
  242000    2173.9629   -747.19525    301658.55    15.703348 
  242500    1800.5262   -750.83338    281245.09    15.706627 
  243000    1936.5256   -754.62212    304816.23    15.596827 
  243500    2033.1395   -735.34679    309508.45    15.557328 
  244000    2009.7391   -753.43003    280743.17    15.712172 
  244500     2059.833   -745.48754    311030.95    15.614703 
  245000    2066.5127   -709.54301    302392.36    15.438108 
  245500    2074.0577   -707.14277    300587.04    15.424041 
  246000    2079.4582   -725.53413    300065.79    15.480806 
  246500    2043.4088    -740.9671    309928.56    15.572594 
  247000    2205.2655   -746.64223    306036.99    15.675828 
  247500     2008.704   -744.02311    301790.03    15.686691 
  248000    2116.8442   -743.27261    306019.16    15.663713 
  248500    2071.9542   -740.88563    309922.14    15.650645 
  249000    1983.5087     -741.723    305974.86    15.678374 
  249500    2036.0467   -742.22267    315922.55    15.624159 
  250000    2076.9491   -740.13461    305722.34    15.701148 
  250500    2134.0195   -749.61937    285656.18    15.718883 
  251000    1957.8427   -748.25572    301332.26    15.666833 
  251500     2008.396   -754.04712     264373.3    15.723896 
  252000    2002.0873   -743.98545    307067.07    15.698642 
  252500    1771.5131   -746.78823    304686.39    15.692604 
  253000     1928.054   -740.47305    301243.58    15.700157 
  253500    2122.9543   -742.32758    299021.04    15.700948 
  254000    2055.5838    -650.2149    305050.19    14.997368 
  254500    2130.3664   -650.82776    311942.78    14.939093 
  255000    2026.7204   -650.85189    305688.19    14.910205 
  255500    1918.9208   -646.44705    305175.83    15.019463 
  256000    2141.5449   -683.43392    295957.27    15.396295 
  256500    1873.3242   -642.22388    301231.68    15.034273 
  257000    2055.0426    -654.3526    294461.41    15.152698 
  257500    2010.5368   -659.85175    294897.88    15.049005 
  258000    2061.3516   -696.22278    292060.12    15.463178 
  258500    1971.9764   -691.84719    301761.28    15.430108 
  259000    1954.6516   -687.37244    298483.21     15.33147 
  259500    2057.4519   -628.28065     295430.5    14.735945 
  260000    2065.6049   -604.73998    303398.78    14.625826 
  260500    1967.9646   -628.24851    293247.97    14.710145 
  261000    2030.6208   -615.53968    293894.47    14.589376 
  261500    1983.4738   -610.85445    313816.44    14.447535 
  262000    2034.0571   -703.74324    297901.07    15.156951 
  262500    2092.3738   -659.39597    305362.71    14.802943 
  263000     2277.702   -645.32481    311336.65    14.671088 
  263500    1937.9384   -601.98531    314129.85    14.516806 
  264000    1887.8849   -623.01972     297551.9    14.544384 
  264500    1924.7559   -653.01725    293485.07    14.697781 
  265000    1989.9995   -620.52141    289999.52    14.586884 
  265500    2008.5476    -616.6964    310280.57    14.471661 
  266000    2034.4453   -605.41898    298120.31    14.506887 
  266500    2083.8869   -706.69831     299982.5    15.070226 
  267000    1767.0022   -706.82068    300294.07    15.251424 
  267500    1999.8199   -708.48079    302417.93    14.975969 
  268000    1972.0363   -761.92408    290021.01    15.419009 
  268500    1900.8833   -731.43982    296957.66    15.122839 
  269000    1944.2492   -755.38138    295749.62    15.372158 
  269500    1962.1646    -717.9763    296746.36    15.102263 
  270000    2030.1823   -704.82983    303260.13    15.030089 
  270500    1989.4958   -679.19883    304294.79    14.673016 
  271000    1826.0179   -677.45027    302808.29    14.716134 
  271500    1993.5529   -723.62778    287042.79    15.109477 
  272000    1975.3941   -703.54307    302836.18    14.923877 
  272500    1990.4839   -721.07165    302155.84     15.14972 
  273000    1847.8096   -728.95124    296435.02    15.233116 
  273500    2096.6355     -724.419    297184.47    15.033019 
  274000    1954.6335   -755.97164    297688.11    15.416349 
  274500     1980.025   -754.98908    295056.35    15.387191 
  275000    2038.7957   -682.93646    301224.89    14.700526 
  275500    2063.1142    -671.5107     301757.2    14.679087 
  276000    2043.1553   -663.52608    302591.33    14.709484 
  276500    1938.4853   -673.44384    300264.79    14.969142 
  277000    2042.8144   -593.25062    329260.72    14.419472 
  277500    1988.3519   -616.71959    295694.18    14.567209 
  278000    2029.2366   -611.72474    300020.77    14.531494 
  278500    2106.0846   -615.43915    297721.47    14.560748 
  279000    2003.7218   -661.80057    303678.02    14.701252 
  279500    2015.1184   -674.94581    326448.52    14.562953 
  280000    1912.2557    -683.9843    303414.03    14.595867 
  280500    2081.3216    -687.2824    288524.99    14.806975 
  281000    1977.9137   -650.19526    310528.26    14.613936 
  281500    2032.6759   -619.15943    302615.84    14.555438 
  282000    2128.8744   -615.52535    303791.17    14.538515 
  282500    2180.0452    -657.3611    303613.27    14.811283 
  283000     2019.258   -732.52566    297582.11    15.309235 
  283500    1837.1851   -676.82614    293863.15    15.056537 
  284000    2051.6086   -631.65136    298648.26    14.827125 
  284500    1972.6136   -663.44914    295505.62    14.985141 
  285000    1990.0174   -665.76659    291244.14    15.105807 
  285500    2066.2122   -699.79638    298613.74    15.510828 
  286000    2105.0682    -707.3525    306634.73    15.327452 
  286500    1966.4618   -716.10544     300420.1    15.363407 
  287000    1882.7225   -710.77663    297832.78    15.301277 
  287500    1995.0184   -714.33273    291806.03    15.479199 
  288000    1961.5699   -689.15443    302848.32    15.394168 
  288500    2015.7744   -640.02234    308613.97    15.031279 
  289000    2054.0323   -670.41115    293112.06    15.161468 
  289500    2040.7791   -703.19527    301098.98    15.338646 
  290000    2161.8235   -603.74612    307402.09    14.580771 
  290500    1934.3145   -602.20505    309274.59     14.51606 
  291000    1833.7156   -594.23397     315659.6    14.561998 
  291500    1831.7928   -685.74024    297475.76    15.161013 
  292000    2056.7707   -706.61787    305003.42    15.037342 
  292500    1921.2392   -718.53242    287273.91    15.185699 
  293000    1964.1338   -761.10822    297871.86    15.421578 
  293500    1901.8617   -754.84287    310269.63    15.383949 
  294000    2169.6645   -753.72613     307735.4     15.33723 
  294500    2049.0773   -739.36289    294751.58    15.184521 
  295000    2086.9458   -703.16245    304174.48    14.877684 
  295500    1984.2022    -721.3035    292595.07     15.05691 
  296000    1832.7732   -724.97969    295836.46    15.234123 
  296500    2195.1304   -674.54595    301816.74    14.786229 
  297000    2007.4515   -684.21633    297276.05    14.941099 
  297500    2274.0386   -681.45435    298923.94    14.736653 
  298000     1824.345   -664.50684    308153.71     14.64538 
  298500    1904.3665   -697.70137    289840.85    14.818946 
  299000    2072.1724     -708.032    309164.92    14.968749 
  299500    1817.6654   -635.94458    317277.36    14.494004 
  300000    1984.1856   -670.73027    300314.33    14.736708 
  300500    2003.0701   -679.16962    292124.74    14.828447 
  301000    1961.6774   -606.28285    304806.62    14.387032 
  301500    1852.7898   -710.35235    291845.53    15.077912 
  302000     1904.881   -721.47132    302360.95    15.083352 
  302500    1858.6835   -730.82642    280097.26    15.443942 
  303000    2003.8898   -701.73194    301005.47    15.032372 
  303500    1867.2588   -607.09456    294401.82    14.481537 
  304000    2004.5873   -597.50105    320752.52    14.369674 
  304500    2161.0504   -651.30212    295937.63    14.812475 
  305000    1947.6987   -616.63126    300255.18    14.620415 
  305500    2110.7756   -704.98051    307283.08    15.209429 
  306000    1917.2096   -747.62312    304253.48    15.619595 
  306500    1763.8852   -757.40112    298003.83    15.572864 
  307000    1924.8173   -752.98432    305719.19    15.512368 
  307500    2062.1245   -754.95427    283885.45    15.586287 
  308000     2161.822   -752.74404    313491.07    15.442321 
  308500    1991.6267   -727.42968    296864.57    15.286061 
  309000    1893.5427   -711.00639    303927.77    15.323802 
  309500    1888.6112    -681.9795    295269.35     15.10911 
  310000    2252.8788    -608.3593    311965.51    14.580116 
  310500    2021.4991   -622.99687    297649.01    14.741829 
  311000    2033.4981   -666.55774    293060.88     15.12892 
  311500    1988.9481   -658.30788    290863.79    15.132787 
  312000     2112.276    -653.5181    301087.44    15.164254 
  312500    1869.5625   -662.30722     291416.5    15.153547 
  313000    2159.3622   -655.14388    291038.05    15.136139 
  313500    1845.7045   -642.16733    301554.72    14.964567 
  314000    1948.6229   -647.92975    300009.69    14.927553 
  314500    2010.6211   -659.95634    290682.93    15.116283 
  315000    1789.6486   -649.89107    299834.03    15.127554 
  315500    1796.1596   -643.28165     297199.4    15.082215 
  316000    2001.9457   -597.86318     303055.4    14.628782 
  316500    2070.0474     -606.184    305916.98    14.650692 
  317000    1956.1925   -606.75509    302557.01    14.630282 
  317500    1969.5102   -618.23607    296153.78    14.686468 
  318000    2081.0625   -659.64522    304606.72    14.921347 
  318500    1945.4271   -610.98821    299079.62     14.58198 
  319000    2123.6944   -646.74892     303849.2    14.765928 
  319500    2025.9905   -597.46923     306306.8      14.6065 
  320000     2197.376    -636.3178    299541.95    14.720647 
  320500     1953.912   -621.49445    313805.03    14.571371 
  321000    1850.5029   -613.87328    300282.65    14.574584 
  321500    2048.2174   -631.51094    298875.36    14.656597 
  322000     1951.338   -600.41935    301374.75    14.607293 
  322500    2113.9389   -600.89445    301380.38    14.628321 
  323000    2065.4464   -619.56621    300965.17    14.663938 
  323500    2159.5502    -594.7374    303467.24    14.680533 
  324000    1912.1164   -584.64065    307356.86    14.600408 
  324500    2092.0235   -600.61653    289248.42    14.682551 
  325000    1956.9206   -595.97664    300525.36    14.618282 
  325500    2007.1155   -610.00366    287349.29    14.717182 
  326000    2045.5483   -592.69055    299819.15    14.665749 
  326500    2035.8788   -587.23359    303976.35    14.648131 
  327000    1703.2122   -595.10822    278032.85    14.669421 
  327500    1993.1535   -627.41629    307026.58     15.03702 
  328000     2087.394   -638.21151    297547.72     15.14301 
  328500    2057.9425      -636.63    307306.04    15.071456 
  329000    1914.5344   -655.07235    295268.51    15.175701 
  329500    1781.8484   -656.41682    289575.65    15.208669 
  330000    1950.1309   -632.28624    294187.83    15.141488 
  330500    2045.3549   -627.00007    309557.28    15.071817 
  331000     2004.009   -641.52956    294058.38      15.1561 
  331500    1934.1545   -638.15316    306448.21    15.006514 
  332000    2076.2454   -652.61842    291846.81     15.14746 
  332500    2090.8641   -679.22825    305663.85     15.38942 
  333000    1836.0888   -660.22398    291224.01    15.227461 
  333500    2021.0115   -650.91623    296409.37    14.995886 
  334000    1934.9338   -637.97427    302736.06    15.091758 
  334500    1974.2454   -616.99271    314806.85     14.93791 
  335000    2249.4795   -647.07658       303013    14.981009 
  335500    1810.8886   -652.35736    291944.31    15.143021 
  336000     2079.396    -634.7005    297826.58    15.131112 
  336500    1977.7409   -646.79205     292382.7    15.123185 
  337000    2116.6204    -644.4106    299633.46    15.130797 
  337500    2182.9509   -652.49717    293919.51    15.176325 
  338000    1947.3565   -646.38731    293975.81    15.083589 
  338500    1933.5805   -627.44392    299475.21    14.876895 
  339000    1763.5405   -638.02129    295906.17    14.994613 
  339500    1938.7354   -641.33319    294594.72    15.098766 
  340000    2050.1325    -660.5454    301917.03    14.992621 
  340500    2006.0276   -637.42897    308637.21    14.965443 
  341000    2011.7984   -652.58525    291222.46    15.151117 
  341500    1878.6955   -628.34162     305339.5      15.0187 
  342000    2061.7897   -657.93188    290588.64    15.058857 
  342500    1951.9146   -635.80815    309487.29    14.920347 
  343000    1959.5799   -652.54366     297447.1     15.10108 
  343500     1966.151   -660.31597    298411.68    15.190091 
  344000     1860.983   -627.79545    307070.05     15.03328 
  344500    1883.2132   -647.28868    303117.03    14.878254 
  345000    1964.0757    -653.0887    293175.62    15.003628 
  345500    1938.8186    -656.7024    292924.64    15.273182 
  346000    2091.7423   -650.88507     296922.9     15.18779 
  346500    1992.7251   -711.61407    292252.69    15.559058 
  347000    1855.1385   -693.42879    297899.61    15.460843 
  347500    2166.7468   -692.13375    308095.12    15.456947 
  348000    2247.1852   -693.63693    303451.23    15.434428 
  348500    2043.8102   -697.23431    298924.26    15.448274 
  349000    1858.2089    -703.4884    291752.44    15.545885 
  349500     1932.653   -698.25055    305683.91    15.432003 
  350000    1962.5873   -696.94543    296081.47    15.403408 
  350500    1720.7706   -698.91392     301043.1    15.343684 
  351000    1964.9544   -739.77108    307943.28    15.684315 
  351500    1925.4764   -734.87884    308104.26    15.668264 
  352000    1845.4562   -729.64409    279766.57    15.711083 
  352500    1981.7485   -744.21452    310361.66    15.696586 
  353000    1940.3738   -739.31541    296242.69    15.779343 
  353500    2090.3028   -740.54432    311885.54    15.656981 
  354000    1891.6187   -656.45041    287945.12    15.258849 
  354500    2051.8793   -624.99416    309382.39     15.01051 
  355000    2006.8513   -635.20701    297950.32    15.103699 
  355500    2095.3653   -634.89174    301532.39    15.130479 
  356000    2021.5601   -629.50325    309535.18    15.025996 
  356500      2095.37   -637.54959    297335.87    15.112267 
  357000    2062.7724   -659.43081    295129.94    15.175399 
  357500    2139.7576   -658.30917    294950.25     15.14777 
  358000    1866.5743   -631.41743     301073.2    15.093775 
  358500    2007.4132   -645.26959    283128.46    15.119605 
  359000    2020.2703   -583.58836    299797.08    14.646144 
  359500    1954.2079   -587.04326    300621.41    14.653248 
  360000    1949.7543   -585.14357    299733.07    14.623435 
  360500    2091.1158   -581.15438    319598.26    14.576389 
  361000    2231.1483   -586.44284    288959.94    14.653265 
  361500    2015.1542   -582.10189    305791.23    14.597991 
  362000     1938.511   -586.89934    304053.73    14.593651 
  362500    2146.2006    -594.6023    289794.52    14.678054 
  363000    2060.9152   -590.89697    303381.01    14.617511 
  363500    1992.8234   -599.59753    282592.48    14.676856 
  364000    1894.2638    -602.3233    288483.66    14.665111 
  364500    2039.5447   -592.25102    285464.37    14.615535 
  365000    1999.8449   -588.80488    297853.77    14.643449 
  365500    2068.6016   -584.00928     313216.3    14.603828 
  366000    1865.9013    -652.5948    293579.64    14.989116 
  366500    2084.9566   -677.24001    302831.07    15.123692 
  367000    2001.3723    -679.8397    298092.41    15.220559 
  367500    2048.5612   -672.66759    296011.63    15.126365 
  368000    1868.4285   -665.60294    297607.44     15.09242 
  368500    1839.9347   -605.09107    296567.96    14.688937 
  369000    1877.0625   -593.78097    300107.58    14.627243 
  369500    1979.3208   -601.41935    295840.59    14.724273 
  370000    2059.2771   -591.71114    293805.06    14.660023 
  370500    2045.0102   -587.27413    315962.94    14.609014 
  371000    1923.4325   -604.94288    294193.62    14.654413 
  371500    2056.9523   -610.76858    287946.97    14.714927 
  372000     1996.614   -601.18846    309267.07    14.556313 
  372500     2129.397   -648.27438    308549.44    14.840206 
  373000    1835.4142   -596.54591    294804.09    14.621004 
  373500    2124.7325   -593.46559    297513.61    14.635063 
  374000    2060.9897   -579.29408    315440.72    14.570381 
  374500    1783.5175   -583.21592    302291.34     14.58367 
  375000     2202.005   -586.52493    292705.22    14.691895 
  375500    2009.8286   -582.91297    303932.72    14.607856 
  376000    2040.7907   -594.92627    293296.64    14.666042 
  376500    2040.8961   -595.03039    292962.21    14.661187 
  377000    2105.4939   -588.35145    306266.49    14.601449 
  377500     2191.057   -585.10852    311047.03    14.612372 
  378000    2043.7622   -605.55415     286262.6    14.693275 
  378500    2021.4008   -585.66428    302679.51    14.619174 
  379000    1889.9038   -582.27879    327904.39    14.551753 
  379500    2000.4626   -593.34246    299813.99    14.632069 
  380000    2017.9408    -590.4926    309280.86    14.573188 
  380500    2084.0703   -600.19045     300407.3    14.680315 
  381000     2199.294    -623.5314    297880.69    14.654854 
  381500    1885.0711   -601.91396    304303.75    14.617448 
  382000    2029.6411   -613.96346    292148.54    14.770771 
  382500    1951.5544    -590.6713    285846.41    14.643741 
  383000    1850.9641   -605.36178    292900.35    14.695934 
  383500    2011.2729   -586.30391    308715.28    14.584574 
  384000    2043.2345   -573.08464    337189.46    14.567311 
  384500    1912.8279   -581.52169    300559.43    14.619724 
  385000    2043.3327   -580.45478    300486.99    14.604205 
  385500     2045.128   -600.92576    284050.82    14.660626 
  386000    1970.4076   -591.54315    301096.74    14.630116 
  386500    1918.1738     -598.155    298837.81    14.603485 
  387000    1923.8087   -602.31284    311645.59    14.485636 
  387500    1745.5076   -715.16634       295107    15.431371 
  388000    2047.3171   -749.19599     302108.6    15.672015 
  388500    2132.6413   -752.21333    303194.38    15.652319 
  389000    1895.0225   -737.32786    302220.36    15.595548 
  389500    2108.2297   -740.63858    308136.27    15.585897 
  390000    2098.9053   -753.51041    294497.14    15.581158 
  390500    1906.2121   -743.60106    300022.62    15.573812 
  391000    1998.2697   -754.54987    306245.58    15.517595 
  391500     2085.727   -750.84824    296507.37    15.425108 
  392000    1974.8244   -746.30696    285666.42    15.373914 
  392500    2063.7334   -754.96271    316894.55     15.46851 
  393000    1885.9054   -755.14068    291340.13    15.537486 
  393500    2078.6444   -749.14616    307876.68    15.514952 
  394000    2026.3329   -756.48395    301079.43    15.533666 
  394500     1920.069    -707.8061    302986.48    15.139743 
  395000    1895.2931   -675.47417    301840.53    14.904962 
  395500     1995.168   -718.60277    299633.68    15.206644 
  396000    2212.6307   -663.94504    303865.88     14.96041 
  396500    2099.4313   -696.65578    301185.28    15.278636 
  397000    2022.2841   -649.39787    301328.41    14.794472 
  397500    1989.2106     -639.613    300957.15    14.671978 
  398000    2197.9259   -661.47854    294988.98    14.690753 
  398500     1995.123   -676.07841    295439.84    14.668773 
  399000    2054.4711   -580.98867    355330.33      14.3765 
  399500    1957.6461   -645.15636    301254.99     14.69943 
  400000    1971.3175   -598.04182    303414.34    14.528129 
  400500    1849.8886   -588.82608    321069.22    14.483164 
  401000    2166.7896   -607.99459    301875.66    14.470329 
  401500    2017.1299   -632.42468     301932.2    14.701324 
  402000    1974.9149   -600.36927     305687.3     14.52231 
  402500    1871.7623   -610.04193    293697.71     14.61257 
  403000    1992.7489   -713.24918    301558.23    15.227807 
  403500    1999.1389   -756.73527    292401.22    15.661125 
  404000     2029.328   -753.32633    309747.97    15.542476 
  404500    2023.2919   -737.33248    307890.72    15.619361 
  405000    1999.9953   -745.28949    306632.22    15.675743 
  405500    1874.9736   -736.88449    305526.13    15.603732 
  406000    1933.0426   -702.56691    302191.93    15.295314 
  406500    1951.6833   -646.41405    299714.77    14.807019 
  407000    2072.6396   -602.08197    306059.34    14.530727 
  407500    2166.3719   -618.58571    300563.46    14.636135 
  408000    2176.7733   -707.89448    296599.36    15.444824 
  408500    1941.9414    -701.9751     301519.8    15.383471 
  409000    2002.5253   -705.12546    299994.49    15.453364 
  409500    1970.6861   -696.52036     293761.4    15.493467 
  410000    2214.3917   -691.90762    306263.06    15.428234 
  410500    2109.3041   -713.84688    294152.76    15.559717 
  411000    2050.8968   -710.31564    298993.18     15.55484 
  411500    1943.8888   -701.61034    289877.18    15.505191 
  412000    1890.7269   -719.17282    298094.02    15.543251 
  412500    2019.4282   -638.70889     298841.5     14.84032 
  413000    1946.8397   -601.15284    298051.19    14.626986 
  413500    1910.6327   -596.83031    307767.65    14.604477 
  414000     1968.295   -624.20665    305262.83    14.858075 
  414500    2021.0241   -639.47735       306340    15.028055 
  415000    1979.3271   -644.46293     305312.8    15.141275 
  415500    1944.6771   -658.05464    293085.73    15.082861 
  416000    1867.4434   -697.00754    301582.94    15.408863 
  416500    1992.2324   -696.14862    301117.79    15.470441 
  417000     1746.279   -714.37303    293644.92    15.521135 
  417500    1981.9753   -748.31346    282419.01    15.819264 
  418000    1948.6427   -735.78657    300606.47    15.746736 
  418500    1966.9335   -727.28705    304193.84    15.718855 
  419000    1868.9635   -732.46592    305370.87    15.740354 
  419500    1960.5852   -731.00118     297388.5    15.685897 
  420000    1997.2097   -634.10689    309239.35    15.027741 
  420500    2175.5052    -637.6113    302698.93    15.008699 
  421000    1828.0569   -648.71072     292699.1    15.175728 
  421500    2006.4643   -655.16887    297071.26    15.100231 
  422000    2119.4287   -590.29396       293135    14.639957 
  422500    1918.9216    -592.6589    292528.09    14.709829 
  423000     1739.836   -638.93625    292206.14    15.134854 
  423500    1947.5837   -638.94751    299055.96    15.152292 
  424000    1997.7521   -628.67815    302618.24    15.070833 
  424500    2104.4146    -631.1452    300857.43    15.070155 
  425000    1994.1235   -639.67159    303119.37    15.053071 
  425500    2172.7957   -673.39979    299815.67    15.340067 
  426000    1950.1128   -702.20119     290122.9    15.639075 
  426500    2109.8517   -693.43716    303998.81    15.581666 
  427000    2000.4989   -679.16009    306378.88    15.501891 
  427500    1822.5181   -704.86777    300086.94    15.538239 
  428000    1868.5731   -723.27991    301029.99    15.694728 
  428500    1854.8773   -740.49029    297935.51    15.787175 
  429000    2014.6489   -742.40044    295858.86    15.750365 
  429500    1830.0157    -748.5346    309512.64    15.614295 
  430000    1849.1348   -756.71346    298955.79    15.652089 
  430500    2082.2461   -709.62957    310155.36    15.184416 
  431000    1983.9026   -751.29756    298613.22     15.67233 
  431500    1980.8226   -751.55929    288739.53    15.771189 
  432000    1890.8173   -746.27072    313493.64    15.769734 
  432500    2031.2811     -747.213    304718.16    15.775314 
  433000    1942.5621   -730.46128    305907.93    15.644911 
  433500    2021.1218   -712.96613    298053.53    15.646482 
  434000     1942.752   -700.78269    293834.54    15.575713 
  434500    1979.7915   -683.86367    294688.11    15.558311 
  435000    1996.2724   -705.93974    296192.39    15.628028 
  435500     1970.112   -743.77878    281244.36    15.832976 
  436000    2015.9945   -737.50267    316466.62     15.72715 
  436500    1884.3682   -751.46623     298642.8    15.755122 
  437000    2084.8399   -740.84019    308488.81    15.721346 
  437500    2096.5671   -734.75241    304694.42    15.667909 
  438000    2070.2602   -659.38196    296865.24    15.044281 
  438500    2241.5226   -658.82487    298849.43    15.198292 
  439000    2137.5216   -656.45743    301181.24    15.105728 
  439500    1952.4711   -635.45816    307463.62      14.9629 
  440000     1905.665   -635.36576    304116.17    14.838317 
  440500     1978.257   -646.81368    298014.71    15.036941 
  441000    2053.1622   -651.88842    299264.02    15.146728 
  441500    1941.0988   -678.82297     301882.6    15.363001 
  442000    1865.7467   -702.41108    295880.47    15.538512 
  442500    1776.6797   -653.84957    296974.71    15.124491 
  443000     1992.658    -669.8619    296954.35    15.088212 
  443500    1873.5218   -694.79481    300719.04     15.16415 
  444000    1756.1821   -712.74275    298555.03    15.277375 
  444500    1816.1973   -730.73659    298460.84    15.356688 
  445000    1870.0222   -756.46895    301654.31    15.537319 
  445500    2059.1718   -755.90309    289753.63    15.452295 
  446000    1996.4161   -758.06975    309958.99    15.491262 
  446500    1941.3183   -752.11016     301633.3    15.482496 
  447000    2070.5259   -756.22401    299357.58     15.52317 
  447500    2139.5815   -671.48251    287920.82    14.726105 
  448000     2040.819   -656.17522    289759.68    14.670815 
  448500     2097.787   -669.64014    312053.98    14.578092 
  449000    1917.0282   -665.02112    299411.83    14.635933 
  449500    2153.4355   -670.80556    316883.05    14.518525 
  450000    1830.8155   -672.74101    300723.73    14.614968 
  450500    1868.0954    -673.9119    298938.62    14.578935 
  451000    1984.5778   -687.70687     301880.2    14.628194 
  451500    1939.1577   -657.58585    310570.24    14.598422 
  452000    2226.5176   -674.98691    294175.63     14.65619 
  452500    1966.6754   -654.12382    290874.14    14.634782 
  453000    2064.5992   -606.27184    296949.97    14.475237 
  453500    1794.0593   -617.12637    289583.46    14.716712 
  454000    1979.2864   -645.57913    305236.53    14.880153 
  454500     2135.011   -578.87223    332740.28    14.570612 
  455000    1968.2976   -621.29248     308509.6    14.866252 
  455500    2031.4047   -636.73983    310846.06    14.965725 
  456000    2024.7353   -677.24467     294763.2      15.1978 
  456500    2147.6804   -696.94453     306609.2     15.29278 
  457000    2111.4071   -632.57076    320102.07    14.982049 
  457500     2083.035   -693.81313    302403.03    15.323123 
  458000    2066.0839   -608.03946    301599.74    14.659898 
  458500    1777.2327   -581.25772    315583.54    14.592603 
  459000    1997.2115   -583.18184    302678.72    14.660408 
  459500    2093.0247   -595.02851    304668.72    14.626046 
  460000    2206.5272   -597.18464    305659.45    14.606404 
  460500     1875.852   -631.86769    302661.48    14.740489 
  461000    2006.8724   -632.80223    295305.05    14.758308 
  461500    2079.3422   -644.43736    295801.65    14.787875 
  462000    1950.1465   -675.64769    294040.19    15.000692 
  462500    1896.7201   -631.60626    293384.98    14.768245 
  463000    2060.2618   -661.96833    290529.51    14.837207 
  463500    2020.4305   -706.81053    300369.34    15.004594 
  464000    2091.1898   -709.27944    306622.47    15.089602 
  464500    1844.2661   -640.21734    295814.26    14.903716 
  465000    2045.3048   -603.19565    285299.41    14.553383 
  465500    1848.2013   -643.03009    295624.85    14.760187 
  466000    2098.7058   -620.42471    309198.56    14.584014 
  466500    2074.6481   -596.45618    289921.98    14.481266 
  467000    1763.8614   -635.07645    291593.03    14.719607 
  467500    2022.0869   -640.93326    299781.11    14.746819 
  468000    1759.3586   -671.96514    299733.58    15.247417 
  468500    2010.8759   -672.40815    300794.76    15.240879 
  469000     1983.837   -653.19207    296380.87    15.187125 
  469500    2120.1734   -644.38418     297095.3    15.183117 
  470000    1956.0592   -658.19889    295427.22    15.262211 
  470500    1968.2713   -601.59661    293491.96    14.680333 
  471000    1944.5956   -587.73325    298055.57    14.635874 
  471500    2088.7977    -620.8164    290676.14    14.669922 
  472000    2023.1386   -647.75156    302017.67    14.813525 
  472500    1750.4551   -722.73963       295322    15.345931 
  473000    1991.2894   -668.03246    300692.47     14.80316 
  473500    2052.1632   -681.17333    300024.23    14.997848 
  474000    1999.0103   -704.82621    298744.61    15.001576 
  474500    2261.8961   -698.12281    302908.89    14.896675 
  475000    1928.9729   -663.60767    290206.52    14.735451 
  475500    2255.7048   -608.09903    294071.44     14.50474 
  476000    1940.3597   -616.28206    306178.29    14.577804 
  476500    2203.9531   -612.00583     291620.2    14.490756 
  477000    2083.8262    -596.7938    305206.45    14.378135 
  477500     2079.247   -598.86192    302677.71    14.397021 
  478000    1962.8895    -660.5436    297006.94    14.685132 
  478500    2199.3011   -684.97493    302711.67    14.757994 
  479000    2041.4193   -676.11174    286502.45    14.738632 
  479500    1941.2975   -674.39951    304415.44    14.647518 
  480000     1844.412   -720.17487    289194.56     15.13234 
  480500    2006.6559   -747.95822    311624.33    15.240317 
  481000    1982.9481   -750.00303     308148.5    15.360891 
  481500    1945.4426   -760.14861    298959.18    15.419528 
  482000    2080.6478   -755.90063    304461.74    15.370761 
  482500    2073.5839   -745.54293    307516.93    15.282979 
  483000    2123.9552   -720.54855     298313.4    15.196743 
  483500    2034.3629   -661.52278    296035.82    14.663948 
  484000    1900.9938   -662.48101    308483.52    14.584655 
  484500     2248.868   -675.61812    317135.93    14.559981 
  485000    2014.4109   -692.18476    286586.69    14.736435 
  485500    1931.3443   -689.52847    295032.38    14.773564 
  486000    1972.5779   -695.69218    295176.41    14.673741 
  486500    1809.9144   -678.37018    286884.41    14.712301 
  487000    1978.1312   -663.40809    300578.82    14.635828 
  487500    1987.5112   -656.35643    299782.04    14.776772 
  488000    2006.1295   -615.53418    301262.63    14.602611 
  488500    1983.9878   -665.69521    299199.45    14.638129 
  489000    1964.1527   -658.08577    300462.37     14.59788 
  489500    1986.3943   -675.98841    306192.52    14.601865 
  490000    1959.1892   -647.97319    295604.11    14.515892 
  490500     2011.199   -729.81534    299654.83    15.035319 
  491000    2088.7431   -716.77475    304882.08    15.108141 
  491500    1950.7063    -714.1903    310188.62     15.08308 
  492000    2096.1305   -722.20458    301461.85    15.084319 
  492500    2010.2245   -731.39962     299357.7    15.299614 
  493000    1944.6211   -728.42651    297736.81    15.045094 
  493500    1996.3888   -735.61369    292435.92    15.151688 
  494000    1839.6167   -714.66455    306564.46    14.996853 
  494500    1928.5617   -726.91008    293731.12    15.124569 
  495000    1986.1521   -674.17864     296892.2    14.713702 
  495500    2098.9207   -672.48517    310823.22    14.634018 
  496000    2109.6298   -678.60387    313096.07    14.650086 
  496500    2011.2156    -660.9317    298503.42    14.632989 
  497000    1997.1856   -748.13614    306816.89    15.289711 
  497500    2007.4218   -718.38042    299024.62    15.131215 
  498000    1946.7412   -704.55236    299600.17    15.107774 
  498500    1979.9484   -592.44696    298471.49     14.49234 
  499000    1868.0618   -610.63323    302102.24     14.56877 
  499500      1921.93   -678.06652    303294.21    14.912376 
  500000    1801.2622   -662.04633    293841.08    14.838479 
  500500    1889.6734   -675.83646    299739.65    14.827718 
  501000    2114.9753   -724.87303    294718.36    15.302354 
  501500    2025.5304   -711.15647    308060.63    15.248755 
  502000     1909.575   -691.32481    302984.74    15.380701 
  502500    1962.7137   -713.09399    297842.77    15.567926 
  503000    2014.4741   -709.08158    309296.79    15.276693 
  503500    1969.4642   -703.73164    305468.23    15.092989 
  504000    1940.7199   -726.02636    295712.61    15.250669 
  504500     1784.093   -732.40944    289531.82    15.306077 
  505000    1927.6997   -727.42295    294084.22    15.309156 
  505500    1963.2673   -707.58868    302410.12    15.191532 
  506000    1858.0247   -713.46118    306150.15    15.140048 
  506500    2050.2185   -723.65063    291986.39    15.302749 
  507000    2025.2039   -722.25223    292018.08    15.250293 
  507500    1924.4042   -715.96291     295039.4    15.273889 
  508000    2118.0793   -710.25907    306262.97    15.152594 
  508500    2149.6705    -724.1326    293260.02     15.31317 
  509000    1865.1145   -715.15454    292782.93    15.323196 
  509500    1891.1977   -687.41982    299149.41    15.023174 
  510000    1874.7787   -716.98463    296604.87    15.199807 
  510500    1823.1741   -722.62274    289452.72    15.285406 
  511000    1941.0135   -712.59396    307878.09    15.134536 
  511500    1889.7104   -720.48426    295732.53    15.226284 
  512000    1809.5254   -724.97549    291502.35    15.346959 
  512500    2072.1902   -691.65206    302160.41    15.031154 
  513000    2033.6865   -719.26053     301238.1    15.228879 
  513500    2136.2192   -699.37846    304545.04    15.173087 
  514000    1958.6471   -711.25464    303029.43    15.155516 
  514500     1937.899   -703.19187    302821.47    15.157528 
  515000    2193.8749   -702.58197    297788.45    15.120938 
  515500    1850.5406   -723.26225     291233.3    15.324284 
  516000    2076.2139   -725.16937       297980    15.265075 
  516500    2040.6694     -672.087    289868.17    14.974943 
  517000    2011.7532   -726.28554    292453.01    15.258763 
  517500    1963.7728   -717.74013     299672.9    15.197409 
  518000    1956.4897   -723.59602    297255.46     15.28153 
  518500    2108.4209   -741.33128    285762.37    15.411063 
  519000    1991.7901   -724.52029     306168.1    15.308105 
  519500    2029.5899   -754.52592    304603.03    15.646402 
  520000    1982.3679   -747.49495    295170.52    15.746973 
  520500    1990.6136   -739.58926    304897.07    15.676694 
  521000    1983.8585   -733.18621    296798.33    15.691902 
  521500    2121.0542   -743.88062       297300    15.664891 
  522000    1977.3158   -753.51325    303879.08    15.657456 
  522500    2082.8321   -759.65372    283400.43    15.684676 
  523000    2041.5382   -753.30648    286757.88    15.556705 
  523500    1944.9119   -692.93368    307550.01    14.906074 
  524000    2017.1615   -716.54715    299139.35    15.091246 
  524500    1997.9077   -643.06626    308968.32    14.689047 
  525000    2040.5646   -735.24598    303870.11    15.382394 
  525500    1901.9905   -634.17591    295929.67    14.810872 
  526000    2112.2251   -586.95527       312051    14.412574 
  526500    2078.3297   -597.18683    288595.69     14.42143 
  527000      1966.91    -619.0741    298294.14    14.595384 
  527500    2134.9702   -600.55238    296291.07    14.421306 
  528000    2055.4414    -618.4115    299476.79     14.46082 
  528500    1930.0039   -759.24018    282514.06     15.41205 
  529000    1958.2752   -764.38168    288680.26    15.445989 
  529500    1956.7623   -756.69943    308168.73    15.381611 
  530000    1947.4133   -759.35246    289955.45    15.458521 
  530500       1953.3   -751.50543    282608.64     15.51585 
  531000    2015.5044   -753.31755    311202.64    15.473292 
  531500    1902.1878   -758.40752    300350.83    15.555047 
  532000    2059.7565   -748.48484    312992.66     15.43809 
  532500    1963.3375   -750.92648    298186.16    15.472827 
  533000    1927.6291   -746.85514    306112.55      15.5923 
  533500    1981.8763   -628.02158    295941.21    14.739983 
  534000    1951.8737     -592.638    302043.43    14.390774 
  534500    1881.6329   -608.67494    289845.98    14.508576 
  535000     1962.257   -597.24137    306221.62    14.504961 
  535500    1915.6274   -648.59101    305398.02    14.701059 
  536000    1930.8975   -724.55771    298140.58     15.23512 
  536500    1859.4699    -634.9991    289585.83    14.697488 
  537000    1877.4359   -658.67399    300178.88    14.826054 
  537500    2148.6734   -615.08263    300676.44    14.470171 
  538000    1968.2807   -661.06912    295982.04    14.659789 
  538500     2002.318   -594.79155    299242.25    14.415754 
  539000     1949.764   -586.99282    294198.62    14.484212 
  539500     2024.471   -593.03297    305593.55    14.395498 
  540000    1930.9502   -597.56404    304544.94    14.525635 
  540500    2169.9901   -610.99965    297025.33    14.615453 
  541000    2274.1973   -642.47606    296798.48    14.781729 
  541500    2023.8588   -611.72742    300624.03    14.737547 
  542000    1998.0856   -597.23338    302585.41    14.579922 
  542500    1723.4783   -579.80374    294434.37    14.621033 
  543000    1819.9825    -586.8572    299752.35    14.573967 
  543500    2087.7571   -584.62569    298747.65    14.705917 
  544000    2029.4393   -682.38694    306427.87    15.415679 
  544500    1945.7166   -690.99506    302774.28    15.539191 
  545000    2091.8007   -705.53593    295169.45    15.666246 
  545500    1959.6134    -724.4114    298424.81    15.781891 
  546000    2009.2412   -741.46911    297448.17    15.815292 
  546500    2234.1575   -746.79486    311818.48     15.66143 
  547000    2017.9914   -753.49127    283607.92     15.76216 
  547500    1876.5557   -729.65322    301293.18    15.744189 
  548000    2008.1435   -743.09458    296399.49    15.773554 
  548500    2053.5349   -687.13465    305143.91    15.320772 
  549000    1893.6761   -751.63381    283124.22    15.845738 
  549500    2041.3651   -751.52289    290651.53     15.83399 
  550000    2153.4372   -745.38337    308039.73    15.779186 
  550500    1946.8195   -745.35522    300966.05    15.819829 
  551000    2093.7171   -730.85213    310427.45     15.72372 
  551500    1980.8906   -753.43554    293638.58    15.736528 
  552000    1888.2014   -748.39623     301149.9    15.715494 
  552500    1858.9206   -746.34058    305429.63    15.773192 
  553000    1884.6967   -704.85379    298253.69    15.568498 
  553500    1940.7729   -701.64072    305996.51    15.455116 
  554000    2117.2281     -692.563    300596.23    15.432071 
  554500    2002.2554   -694.14074    300572.82    15.446339 
  555000    1889.7077   -694.22585    295739.21    15.468331 
  555500    2007.1351     -624.195    310660.01    15.035777 
  556000    1920.4243   -673.83079    301104.83    15.347403 
  556500    1910.1485   -698.73025    299678.19    15.454772 
  557000    1892.7871   -673.87829    297445.59    15.154673 
  557500    2091.1556   -612.08235    292337.54    14.702393 
  558000    1843.4316   -653.10232    299595.17    14.963293 
  558500    1883.3814   -584.50957    317496.86    14.538187 
  559000    2087.8695   -581.62794    312022.79    14.586907 
  559500    1878.7403   -650.76736    293837.76    14.968512 
  560000    1950.5519   -599.75895    295661.45    14.676489 
  560500    1971.3081   -585.27071     286030.5    14.636394 
  561000    1909.7878   -592.58212    299330.33    14.614559 
  561500    1852.7893    -573.6169    308478.32    14.580408 
  562000    2015.4138   -583.07443    296364.47    14.635126 
  562500    1900.5072   -568.96735    325051.55    14.580688 
  563000    2059.6071   -599.80863    301511.85    14.764376 
  563500    1724.8767   -580.30926    294842.29    14.646822 
  564000    1933.9491   -588.44604    297150.47    14.634533 
  564500    2024.1545   -605.01582    295866.76    14.738604 
  565000    2066.9117   -636.44719    297897.78    15.017479 
  565500    2064.6586   -653.60842    295195.83    15.072853 
  566000    1825.3353   -653.64356    296194.69    15.242374 
  566500    2099.4893   -587.38698    294675.43    14.653274 
  567000    2029.0807   -588.09458    297905.45    14.663498 
  567500    2017.7114   -596.14074    295102.57    14.773012 
  568000    1841.6911   -586.75013    298471.36    14.567169 
  568500    2069.1498   -669.03112    294385.73    15.031896 
  569000    1989.4115   -702.77349    296735.47    15.283961 
  569500    1945.3091    -735.9454    298802.54    15.579698 
  570000    2049.9217   -744.31732     297594.2    15.763423 
  570500    2017.8651   -753.03026    295148.61     15.75114 
  571000    2162.4787    -750.0507    304925.48    15.580787 
  571500    2029.5299   -728.44612    298597.78      15.2515 
  572000    1950.4309   -681.42679    294534.47    14.908988 
  572500     1925.668   -733.16009    298220.59    15.311124 
  573000    1970.7588   -673.37045       299617    14.938393 
  573500    1810.8665   -717.18531    295400.88    15.252752 
  574000     1811.466   -745.56656    299282.35    15.546666 
  574500    2015.7302   -652.04275    304494.76    14.850485 
  575000    1969.9294   -639.60806    301556.22    14.958927 
  575500    2092.8271   -655.51353    293829.94    15.165455 
  576000    2005.2392    -648.1746    300148.21    15.100176 
  576500    1843.4962   -580.56722    297219.63    14.627774 
  577000      2161.85   -580.15981    310457.42    14.578518 
  577500    2056.4552   -657.95978    301136.08    15.141692 
  578000    2036.1387    -703.3728    302424.55    15.410998 
  578500    2050.0601   -702.74214    294698.58    15.516347 
  579000    2005.0576   -700.57736    295251.35    15.540374 
  579500    1998.9945   -690.75134    300820.38    15.453702 
  580000     2112.639   -640.31907    296348.18    15.145982 
  580500     2251.373   -698.64915    300455.96    15.556963 
  581000    1881.2968   -713.39272    299239.68    15.713843 
  581500    1935.1618   -673.30291     303181.9    15.452129 
  582000    2135.9678   -674.70837     303357.1    15.407265 
  582500    2008.0101   -651.46836    299996.01    15.198126 
  583000    2098.6588   -660.32149    301226.12    15.203555 
  583500    2030.5537   -647.38125    299891.18     15.11031 
  584000    1971.9321   -719.82193    294582.51    15.637778 
  584500    1890.6165   -701.52517    291058.21    15.543408 
  585000     1963.605   -720.83088    293068.81    15.699926 
  585500    1968.1441     -706.583    308732.09    15.550701 
  586000     2073.697   -722.20795    302437.18    15.734959 
  586500    2061.6257   -630.94148    306036.32    15.058645 
  587000    2012.4362   -626.67652    303630.71    14.991393 
  587500       2108.7   -623.62172    306516.25    14.899601 
  588000     2101.736   -640.28888    302890.39    15.072432 
  588500     2045.255   -636.05107    304779.55    15.108392 
  589000    2077.6656   -607.08468    314776.27    14.957888 
  589500    2063.7972    -628.2635    302973.69    15.135701 
  590000    2047.5371   -642.05255    295628.21    15.175952 
  590500    1906.5733   -652.46807    297205.11    15.027469 
  591000    1824.3219   -640.65082    300436.43    15.058501 
  591500    1854.5134   -640.30565    301968.25    14.883602 
  592000    2196.5931   -601.17379    303940.94     14.61468 
  592500     2052.847   -606.76278    301104.33    14.681572 
  593000     1967.081    -584.1561    291640.19    14.683551 
  593500    1918.1876   -583.39703    289208.44    14.675715 
  594000    2044.8979   -612.38966    299462.36    14.717253 
  594500    2042.4946   -665.48595    296632.34     15.06063 
  595000    1752.3244   -649.88564    293839.26    15.179916 
  595500    1857.3838   -641.72748    297235.75    15.147803 
  596000     1942.435   -648.58922    295740.44    15.155431 
  596500    2023.8839   -614.82982    305480.44      14.7754 
  597000    2063.5309   -636.07126    304899.01    15.012366 
  597500     1855.861   -703.75704    303729.85    15.466922 
  598000     1996.176   -687.62746    304720.12    15.469801 
  598500    1967.5396   -665.88049    302940.47    15.286598 
  599000     2095.946    -707.0468    299181.02    15.556516 
  599500    2047.3479   -625.51135    308679.14    14.899289 
  600000    1857.3211   -690.72838    297737.76    15.476858 
  600500    1934.7966   -705.68264    297866.63    15.432525 
  601000    2123.4521   -674.09832    301622.23    15.148135 
  601500    1975.5853    -669.2248    303271.82    14.986272 
  602000    1886.9556   -610.53147    289761.16    14.680672 
  602500    2034.8401   -625.64796    293317.82    14.661303 
  603000     2116.375   -611.40549    299010.65    14.589976 
  603500    1962.9501   -607.86473    304234.55    14.547893 
  604000    2019.0996   -704.86595    296466.86    15.107724 
  604500    2151.2832   -705.96272    304620.98     15.12769 
  605000    1911.2894   -716.78894    301009.06    15.070369 
  605500    2040.1106   -722.24002    307334.78    15.066431 
  606000    1904.1066   -718.25028    295639.47    14.868938 
  606500    2151.5267    -669.9302    304638.05    14.623934 
  607000    2097.9594   -665.94873    305002.32    14.583673 
  607500    2102.4471   -634.39999    317590.16    14.316518 
  608000    1937.4644   -627.78935    298695.41    14.365418 
  608500    2148.3165   -649.81915    300895.04    14.407044 
  609000     2022.864   -635.71632    301311.21    14.363435 
  609500    2079.6512   -624.27462    310924.46    14.338624 
  610000    2114.7025   -641.37039    291118.12    14.444197 
  610500    1947.8122   -598.44051    296104.14    14.358512 
  611000    1923.9441   -604.01315     298485.5    14.414572 
  611500    1769.6998   -607.07576    290860.07    14.481487 
  612000    2000.7316   -642.86335    305397.37    14.598126 
  612500    1996.5218   -585.80485     315752.1    14.372395 
  613000    1885.2823   -599.82976    284859.74    14.436691 
  613500    2068.3075   -604.88373    295520.74    14.382037 
  614000    2059.8672   -599.36254    295460.69     14.41011 
  614500    1912.5433   -619.20556    289758.43    14.424481 
  615000    1936.9817   -601.25808    284530.73    14.437145 
  615500     2127.513   -686.42319    300326.58    15.018315 
  616000    1924.6111   -729.79621    298779.33    15.302785 
  616500     2001.356   -714.18436    300913.67    15.311843 
  617000    1929.0899   -713.12857    300570.18    15.400271 
  617500    2054.7874    -710.1866    306528.88    15.335035 
  618000    2021.9997   -720.85645    292789.39    15.467438 
  618500    2136.5005   -715.30726    299378.22    15.418504 
  619000    2091.9103   -702.85838    306745.31    15.378309 
[...]
14848500    2029.0928   -644.86047    297944.45    14.823607 
14849000    2163.6466   -708.03045    300793.69    15.251802 
14849500    2179.5131   -597.99413    305557.04     14.60116 
14850000    1928.5738   -623.12504    310107.66    14.722144 
14850500    1867.3551   -708.61505    300037.34    15.191535 
14851000    1996.4404   -702.64026    296901.42     15.23118 
14851500    1935.2111   -632.29551    302451.42    14.700107 
14852000    1910.9581   -744.04383    297183.13    15.635419 
14852500    2074.5909    -738.3113    298728.89    15.586841 
14853000     2146.789   -662.74359    304404.64    15.041182 
14853500    2079.9942   -601.01117    309898.63    14.599418 
14854000    2027.1672   -636.69148     300809.8    15.009166 
14854500    1933.0185   -598.92686    301593.34    14.593183 
14855000    2082.5976   -575.63659    307865.24     14.56132 
14855500    2151.8106   -569.25373    343885.12    14.430784 
14856000    2086.1249   -749.17525    301302.71    15.687032 
14856500    2002.4448   -744.92063    302504.32     15.55152 
14857000    1982.0431   -735.74885    305386.62     15.51033 
14857500    2089.0247   -700.24652    302218.02    15.261151 
14858000     1948.661   -733.64716    297427.28    15.576655 
14858500    1886.6314   -712.32757    278886.61    15.594819 
14859000    2214.3137   -636.50485    305782.76    14.947038 
14859500    1968.9583   -708.84388    303142.52    15.421517 
14860000    2083.9604   -717.83217    302196.35    15.471856 
14860500    1925.7175   -668.62856    299778.25    15.210442 
14861000    1789.1044   -742.94503    282311.31    15.931714 
14861500    2086.6422   -697.83436    304207.44    15.540778 
14862000    2048.5819   -663.05182    302083.84    15.219303 
14862500    2038.8096     -638.038    302536.29    15.115485 
14863000    1984.9829   -678.79409    299479.16     15.36293 
14863500    2011.3013   -643.91621    303272.27    15.104495 
14864000    1987.6195   -686.20829    294549.32    15.419246 
14864500    2099.3931   -624.84975    311326.28    14.986057 
14865000    1850.6179   -711.43579     301057.8    15.634116 
14865500    1937.0635   -679.64164    300072.26    15.284523 
14866000    1967.6372    -689.5682    296952.64    15.267545 
14866500    2054.3106   -734.03352    304796.62    15.475999 
14867000    1981.1709   -667.21022     302049.6    15.248243 
14867500    1973.3343   -597.76201    287888.08     14.67331 
14868000    2037.1523   -575.13865    314503.77    14.541661 
14868500      2088.26   -584.37204    290816.63    14.564172 
14869000    1883.6685   -630.51962    301161.73    14.724514 
14869500    1884.6276    -585.9421    290119.84    14.466424 
14870000    1981.5077   -682.30158    299078.43    15.242492 
14870500    2063.4051   -648.04089    299632.05    14.984533 
14871000    2176.7532   -722.73974    305048.77    15.427279 
14871500    2139.5598   -750.30309    312004.61    15.616488 
14872000     1986.959   -733.33207    302419.65     15.25174 
14872500    1935.9453   -761.08342    283669.43    15.665096 
14873000    1899.3077   -746.79756    308480.86    15.457884 
14873500    1842.5018   -739.76594    298840.52    15.335018 
14874000    2175.5173   -731.91649    297333.84    15.393882 
14874500     1944.641   -591.63527    292651.89    14.502412 
14875000    2168.9461    -579.9997    304590.28    14.474992 
14875500    1968.1012   -580.94942    301758.89    14.548554 
14876000    1936.6658   -597.41933    294725.22    14.749531 
14876500    2068.3426   -630.15176    306334.23    14.870944 
14877000    1940.5048   -679.90027     303003.6    15.282152 
14877500    1980.2437    -664.1861    297279.53    15.211346 
14878000    2109.8973   -689.75473    302983.45    15.293017 
14878500    1911.8178   -649.08123    297431.46    15.098087 
14879000    2198.6837   -679.47914    301427.52    15.254354 
14879500    2132.4064   -672.43207    302827.61     15.15232 
14880000    2030.1404   -685.53226    299816.77    15.333343 
14880500    2047.1272   -693.54055    303260.89     15.26433 
14881000    1951.7916   -696.25243    300425.53     15.30426 
14881500    2098.9734    -715.3644    298545.59    15.568919 
14882000    1916.5152   -667.89804    301994.31     15.12723 
14882500    1988.6141   -694.94042    297713.33     15.65954 
14883000    2055.3263   -708.45336    297349.23    15.633366 
14883500    1989.0784   -622.64985    309565.99    15.017632 
14884000    2031.1488    -707.3516    299369.37     15.66942 
14884500    2166.4578   -670.17546    303387.12    15.117626 
14885000    1892.3947   -752.94276    299167.88    15.794192 
14885500    1864.0499   -742.54189    298808.25    15.754257 
14886000     2059.882   -673.07523    306902.97    15.260047 
14886500     2051.913   -696.14335    299534.78    15.472909 
14887000     2080.035   -694.75786    296821.54    15.583703 
14887500    2004.1816   -670.18533    299260.16    15.202535 
14888000    1996.0421   -690.45507    297288.41    15.357075 
14888500    2142.9043   -689.67054    301132.38    15.332322 
14889000    1995.4961   -635.58836    304373.88    14.994601 
14889500    2049.8497   -689.48579    296923.11    15.371698 
14890000    1980.7447   -631.85421    304716.13    15.047779 
14890500    2130.9643   -652.98657    296385.71    15.252847 
14891000     1982.526   -572.30081    300612.04    14.598771 
14891500    2066.6722   -629.46949    297382.56    14.822507 
14892000    2316.1187   -631.14457    309836.34    14.687771 
14892500    1994.5808   -717.44598    303704.22    15.405791 
14893000    1983.5556       -743.4    298344.54    15.662268 
14893500    1971.1513   -735.43388    299085.32     15.57733 
14894000    1905.2532   -724.12922    300759.48    15.598932 
14894500    2077.9357   -632.44036    300669.21    14.911063 
14895000    2049.0209   -696.48795    293949.97    15.720957 
14895500     2153.022   -613.38174    309559.25    15.063034 
14896000    2183.4271   -640.06546    301821.54    15.212517 
14896500    2019.0337   -625.29442    298917.43    14.953494 
14897000    1939.6464   -603.91224    296997.79    14.807065 
14897500    1991.3402   -582.75131    298004.22    14.594683 
14898000    2028.9908   -615.98219    311293.52    14.687725 
14898500    1988.0855   -620.03317    311908.36    14.588252 
14899000    2254.8009   -661.75276    307926.64    14.878603 
14899500    2111.5226   -641.50892    301419.31    14.725753 
14900000    2054.2785   -648.35471    297987.29    14.765469 
14900500    1882.8183   -632.42056    295809.38    14.712172 
14901000    2008.0868   -626.84187    306617.65     14.67382 
14901500    1990.4118   -631.06315    298963.72    14.689486 
14902000    2056.5154    -627.5031    298935.93    14.728305 
14902500    1864.7643    -632.1922    299090.84    14.726654 
14903000     2007.034   -718.94719    297459.78    15.217681 
14903500    1998.9057   -704.15198    299251.03     15.26144 
14904000    1855.0009   -713.83411    298212.71    15.588156 
14904500    2013.1311   -618.31442    305563.91    14.942683 
14905000    2054.9429   -698.12823    294453.82    15.407754 
14905500    1843.3873   -722.97303    295038.57      15.7192 
14906000    2130.5028   -590.11172    300531.75    14.774015 
14906500    2114.9329    -631.9808    303176.93    14.825903 
14907000     2006.766   -653.40272    299573.94    14.944631 
14907500    1859.7285   -635.28751    298789.92    14.916462 
14908000     1787.584   -661.08682    301113.22     15.16052 
14908500    1840.6094   -711.22092    299182.61    15.382852 
14909000    1997.7352   -748.93684    301800.32    15.771613 
14909500    1880.4515   -716.52544    303971.61    15.503777 
14910000    2043.6707   -675.85809    307822.32     15.21661 
14910500     2238.052    -667.0401     298962.2    15.244397 
14911000    2156.0219   -677.20162    297124.43     15.18384 
14911500     2048.017   -688.23707    301288.76    15.314903 
14912000    2056.8341   -695.90851    302134.78    15.352233 
14912500    2103.5998   -625.57001    302750.68    14.692424 
14913000     2060.447   -692.29733    300055.52    15.172461 
14913500    2190.8096   -715.31894    302186.05    15.312273 
14914000    2154.4176   -697.85367    305390.68    15.289999 
14914500    2070.7676   -711.52451    302031.35    15.355525 
14915000    1999.4509   -688.27961    302652.57    15.256479 
14915500    2160.6828   -710.21251    300183.38    15.590157 
14916000    2063.7555   -636.43447    299598.82    15.075664 
14916500    1922.4484   -647.82698    293373.64    15.207258 
14917000    1957.6834   -682.78116     296365.8    15.322731 
14917500    2029.1698   -665.33908    305713.81    15.167229 
14918000    2020.7712   -680.18973    296612.82    15.263553 
14918500    2060.7359   -678.43165    297023.93    15.275512 
14919000    1992.1256   -668.10111    299140.57    15.044372 
14919500    2080.6793   -693.61529    301925.19    15.186276 
14920000    2092.2525   -689.94083    301728.54    14.940807 
14920500    1981.0594   -582.00868    281415.37     14.26417 
14921000    1902.2084   -579.61822    304177.61    14.198297 
14921500    2002.0741   -596.54126    306085.45    14.364183 
14922000    2004.4498   -666.58346    301042.39    14.730805 
14922500     1883.359   -680.16549    300208.17    14.649908 
14923000    2125.3879   -644.73525    309340.09    14.660315 
14923500     1961.912   -646.97498    303549.64    14.729539 
14924000    2136.1677   -719.53351    305689.62    15.281292 
14924500    1890.3468   -623.82933    304926.78     14.62776 
14925000     1987.979    -664.7987     295543.9    14.926485 
14925500     2009.399   -592.97304     292996.8    14.625367 
14926000    2052.6257   -579.01073    295922.26    14.449142 
14926500    2110.8976   -594.05249    295587.26    14.474011 
14927000    2044.8262   -640.75711    297963.92    14.751466 
14927500    1994.0185   -590.22379    291943.66    14.481097 
14928000    1926.2068   -588.16543    303276.51    14.366935 
14928500    1931.9604   -586.50509    308501.68    14.344331 
14929000    1793.1605   -624.29126    294275.58      14.4749 
14929500    1979.1251   -645.81797    302402.95    14.375519 
14930000    2013.6244    -648.3798    284796.05    14.363128 
14930500    1858.0855   -648.22427    301071.31    14.317912 
14931000    2032.9698   -644.29748    312068.11    14.295013 
14931500    2030.9966   -637.99126    310806.46    14.311061 
14932000    1835.4181   -629.92164    303830.64    14.382915 
14932500    1998.9752   -658.61351    302426.42    14.507608 
14933000    1975.6769   -680.82648    314423.29     14.60835 
14933500    1878.2393   -677.25992    298455.63    14.634408 
14934000    2043.3037   -684.57057    303996.19    14.653561 
14934500    1972.2765   -670.50018    306688.02    14.612371 
14935000    1929.3337   -664.45374    305320.22    14.647885 
14935500    1945.7441   -657.43315    311328.93    14.630447 
14936000    2038.9843    -658.2069     294310.8    14.757279 
14936500    1910.2816   -660.34327    303499.16    14.865801 
14937000    1958.1583   -698.16503    302203.99    15.206382 
14937500    2000.6013   -709.82198    300581.25    15.367444 
14938000    1910.4158   -619.02026    305199.48    14.623095 
14938500    2104.2614   -594.22311    290938.72    14.439382 
14939000    1897.9894   -616.55518    304531.86    14.570905 
14939500    2062.2197   -634.30026    307462.75    14.605524 
14940000     1897.297   -631.35549    303550.02    14.650401 
14940500    2107.0514   -687.17735    307862.85    14.899768 
14941000    2168.7618   -713.19011    294357.86     15.14507 
14941500    2024.9263   -656.52925    306430.96    14.630343 
14942000    1864.6575   -669.86185    294610.32    14.623951 
14942500    2000.7071   -711.56747    304263.62    14.875839 
14943000    1919.8498   -698.96234    306498.13    14.863631 
14943500    1942.1974   -718.77472    294431.86     15.00428 
14944000    2086.4162   -725.08132    302600.12    14.978922 
14944500    2075.3989    -667.8457    287589.36    14.609692 
14945000    1902.4648   -707.25443    302370.78    14.801415 
14945500    1812.4429   -691.66552    305041.75     14.63551 
14946000    1882.3227   -697.50731    305619.71    14.810308 
14946500    1952.0153   -660.24283    303691.22    14.619981 
14947000    1822.4305   -672.10119    297916.47    14.703335 
14947500    2024.1843   -632.05826    303897.52    14.443502 
14948000    2245.6336   -678.33672    302481.98     14.70914 
14948500    2019.3518   -651.73694    302579.33    14.685933 
14949000    1999.0394   -659.97377    308218.46    14.564874 
14949500    2002.1083   -652.56371    305816.01    14.538098 
14950000    1973.5302   -637.39118    300035.41     14.45682 
14950500    2105.3616   -696.01573    305828.54    14.731864 
14951000    2225.4435   -661.00357    306958.01    14.546109 
14951500    2061.5566   -711.91544     299615.8    14.859799 
14952000    1878.4004   -695.91682    288488.66    14.733667 
14952500    2145.8857   -726.06898    284276.06    14.934628 
14953000    1835.0252   -709.99006    308034.69      14.8188 
14953500     1888.104   -715.60232    303221.84    14.834256 
14954000    1932.6761   -711.10211    304523.55    14.845422 
14954500    1939.5614   -714.39111    299567.01    14.889479 
14955000    1929.5965   -667.99127    306657.99    14.540035 
14955500    2007.2669   -711.85573    296985.84       14.807 
14956000    1955.0999   -720.27393    303610.78     14.94302 
14956500    1850.7367   -695.71517    299993.22    14.773314 
14957000      1963.01   -661.85596    294906.82    14.570576 
14957500    2006.9237   -646.88264    294666.75    14.495482 
14958000    2046.9533    -703.3174    298203.67     14.84703 
14958500    1819.0671   -721.22792    295824.12    14.971349 
14959000    2057.2503   -659.42017    301922.01    14.534289 
14959500    1957.4823   -709.56327     309993.4     14.82808 
14960000    2019.6257   -678.96442     302344.8    14.630391 
14960500    2016.6192   -722.56903    307411.14    14.893307 
14961000    2028.2166   -716.44758     305401.7    14.873859 
14961500    2033.6595   -721.34519    298729.41    14.855817 
14962000    1872.9755   -678.25941    291028.44    14.674932 
14962500    2069.3789   -725.77794    293373.15    15.048964 
14963000    2115.2757   -703.35304    307348.34    14.751867 
14963500    1888.2599   -704.65602     298339.6    14.821083 
14964000    2080.0229   -683.15114     303233.2    14.774853 
14964500    1914.3491   -676.85637    305477.29    14.628316 
14965000    1763.6674   -683.81955    296542.36    14.708554 
14965500    1902.4593   -695.47646    304326.24    14.722901 
14966000    1983.7275   -711.95397    307762.13    14.843661 
14966500    2003.1777    -665.2211    308424.03     14.52047 
14967000    2030.5886   -726.34583     301831.1    14.906412 
14967500    1851.3009   -728.19889    296055.08    14.967001 
14968000    2086.7845   -722.27386    288478.31     14.90729 
14968500    1922.2784   -724.09899    300843.55    14.898711 
14969000    2011.1976   -696.67104     306225.6    14.870607 
14969500    1853.3481   -645.93946    298409.29    14.584936 
14970000    1977.8973   -662.37811    305592.32    14.561296 
14970500    1779.9456   -722.49382    299024.23    14.975688 
14971000    2053.2192   -654.74491     300647.4    14.575323 
14971500    2045.9265   -677.23618    302403.62    14.679567 
14972000    2101.1066   -701.71476    307766.26    14.774742 
14972500    1946.8266   -729.62513    297186.63    14.972809 
14973000    1990.5487   -732.67367    291314.27    15.044258 
14973500     2013.009   -645.67415    287899.65    14.459219 
14974000    1844.5362   -681.50726    299006.34    14.694218 
14974500    2027.5489   -672.01535     310137.4    14.629171 
14975000    2018.4607   -695.27453    294506.54     14.90515 
14975500    1896.2073   -713.61965    310742.43    14.995244 
14976000    2128.0281   -708.97471    300530.99    15.067397 
14976500    1907.4573   -700.80864     303106.7    15.001831 
14977000    2102.1404   -732.59566    298409.81    15.307733 
14977500    2234.6996   -661.22347    297038.66    14.740137 
14978000    1987.5442   -682.74571    296809.38    15.015049 
14978500    1959.5378   -719.11293    302539.36    15.445726 
14979000    2018.8495   -730.32357    298328.01    15.543566 
14979500    2072.9486   -686.64678    303615.26    15.214803 
14980000    2163.8943   -727.15394    302574.33    15.525414 
14980500    1959.9189   -751.35899    298711.83    15.772316 
14981000    2009.2687   -733.35026    294426.44    15.597978 
14981500    2182.2835    -749.6317    300259.99    15.637233 
14982000    2104.7616   -755.03467    293424.73    15.742695 
14982500    1986.9262   -704.01858    299676.58    15.264619 
14983000    2077.7191   -752.18912    298753.18     15.64653 
14983500    2103.0021   -728.53948    302197.62    15.532275 
14984000    1932.1741   -725.28503    296582.85    15.580924 
14984500    1819.7852   -743.30979    290934.72    15.709727 
14985000     2134.935   -723.87894    304811.76    15.365739 
14985500    1912.6449   -722.14269    305844.57     15.43587 
14986000    2080.1424   -747.99956    297656.36    15.813428 
14986500    1974.7449   -745.52333       298922    15.509466 
14987000    2138.5086   -761.16995    276304.08    15.719367 
14987500    1995.5069   -685.81937    297637.23    15.151799 
14988000    2021.4572    -743.2298     305576.4    15.564466 
14988500    1790.0426   -737.42392    299471.25     15.45618 
14989000    1915.2207   -744.63744    304909.05    15.504794 
14989500     1978.888   -756.68079    310903.18    15.623968 
14990000    1991.2664   -752.65415    302599.94    15.644948 
14990500     1851.814   -749.73877    300405.92     15.66703 
14991000    1892.6721   -722.12693       305499    15.233111 
14991500    1913.1346   -747.79751    297537.99    15.491278 
14992000    1868.6908   -663.03035    296113.73    14.884297 
14992500     2194.838   -645.09772     296012.3    14.797704 
14993000    2080.4114   -676.64745    309511.38    15.111209 
14993500    2033.8539   -718.37058    299461.26     15.60576 
14994000    2024.5017   -745.57467     299136.3    15.749589 
14994500    1904.3743   -719.61321    300064.37    15.360114 
14995000    2046.0338   -758.47663    297595.35    15.774458 
14995500    1971.5227   -637.21311    306367.09    14.849936 
14996000    2215.3697   -643.56503    303785.72     14.85787 
14996500    1986.0397   -692.28769    302300.66    15.113007 
14997000    2080.4541    -616.5638    308046.79    14.610796 
14997500    1925.5853   -686.90289    281602.45     15.17225 
14998000    1953.8921   -699.13259    288398.85    15.231626 
14998500    1964.0936   -681.90873    301483.36    15.113404 
14999000    1951.0677   -651.48436    301066.52    14.913852 
14999500    1863.7638   -702.12017     297994.7    15.412238 
15000000     1932.806   -748.01904    291754.82    15.625482 
Loop time of 74489.3 on 6 procs for 15000000 steps with 250 atoms

Performance: 34.797 ns/day, 0.690 hours/ns, 201.371 timesteps/s
99.0% CPU use with 6 MPI tasks x no OpenMP threads

MPI task timing breakdown:
Section |  min time  |  avg time  |  max time  |%varavg| %total
---------------------------------------------------------------
Pair    | 3616.6     | 3736.6     | 3832.1     | 138.9 |  5.02
Neigh   | 107.16     | 108.12     | 108.63     |   4.5 |  0.15
Comm    | 888.25     | 986.04     | 1114.5     | 282.6 |  1.32
Output  | 622.35     | 622.38     | 622.46     |   0.2 |  0.84
Modify  | 68975      | 68985      | 68996      |   2.5 | 92.61
Other   |            | 51.52      |            |       |  0.07

Nlocal:    41.6667 ave 45 max 36 min
Histogram: 1 0 0 0 1 0 1 1 1 1
Nghost:    1108.83 ave 1126 max 1098 min
Histogram: 1 1 1 1 0 1 0 0 0 1
Neighs:    3238.67 ave 3537 max 2683 min
Histogram: 1 0 0 1 0 0 0 1 1 2

Total # of neighbors = 19432
Ave neighs/atom = 77.728
Neighbor list builds = 756127
Dangerous builds = 0

write_data	data.final.${p_id}
write_data	data.final.3
Total wall time: 20:41:34
