LAMMPS (8 Feb 2019)
Processor partition = 5
echo both

include         in.partitions
variable p_id world   0 1 2 3 4 5
include		in.temp
variable	temperature equal 2000.
variable	tempDamp equal 0.1 # approx 0.1 ps
include		in.pressure
variable	pressure equal 300000.
variable	pressureDamp equal 1.0
include 	in.seed
variable	seed world 74581 93734 128321 21934 495716 871038
units		metal
read_restart    Restart.lmp.${p_id}
read_restart    Restart.lmp.5
  restoring atom style atomic from restart
  orthogonal box = (0.0649722 0.0649722 0.0649722) to (14.935 14.935 14.935)
  2 by 1 by 3 MPI processor grid
  pair style eam/alloy stores no restart info
  250 atoms
include 	in.setup
variable	out_freq equal 500
variable	out_freq2 equal 500

neigh_modify    delay 10 every 1
include		in.al
### Argon Potential Parameters ###
pair_style 	eam/alloy
pair_coeff 	* * Al99.eam.alloy Al

timestep	0.002 # According to Frenkel and Smit is 0.001

thermo          ${out_freq}
thermo          500
thermo_style 	custom step temp pe press lx


restart 	${out_freq} Restart.lmp.${p_id} Restart2.lmp.${p_id}
restart 	500 Restart.lmp.${p_id} Restart2.lmp.${p_id}
restart 	500 Restart.lmp.5 Restart2.lmp.${p_id}
restart 	500 Restart.lmp.5 Restart2.lmp.5



timer 		timeout 23:50:00 every 1000
New timer settings: style=normal  mode=nosync  timeout=23:50:00

# NPT

include		in.dump
dump            myDump all atom ${out_freq2} dump.al.${p_id}
dump            myDump all atom 500 dump.al.${p_id}
dump            myDump all atom 500 dump.al.5
dump            myDcdDump all dcd ${out_freq2} out.${p_id}.dcd
dump            myDcdDump all dcd 500 out.${p_id}.dcd
dump            myDcdDump all dcd 500 out.5.dcd
dump_modify	myDump append yes
dump_modify     myDcdDump append yes



fix             1 all plumed plumedfile plumed.dat outfile plumed.out
fix             2 all nph iso ${pressure} ${pressure} ${pressureDamp}
fix             2 all nph iso 300000 ${pressure} ${pressureDamp}
fix             2 all nph iso 300000 300000 ${pressureDamp}
fix             2 all nph iso 300000 300000 1
Resetting global fix info from restart file:
  fix style: nph, fix ID: 2
fix             3 all temp/csvr ${temperature} ${temperature} ${tempDamp} ${seed}
fix             3 all temp/csvr 2000 ${temperature} ${tempDamp} ${seed}
fix             3 all temp/csvr 2000 2000 ${tempDamp} ${seed}
fix             3 all temp/csvr 2000 2000 0.1 ${seed}
fix             3 all temp/csvr 2000 2000 0.1 871038
fix             4 all momentum 10000 linear 1 1 1 angular

run             30000000 upto # 60 ns
All restart file global fix info was re-assigned
Neighbor list info ...
  update every 1 steps, delay 10 steps, check yes
  max neighbors/atom: 2000, page size: 100000
  master list distance cutoff = 8.28721
  ghost atom cutoff = 8.28721
  binsize = 4.1436, bins = 4 4 4
  1 neighbor lists, perpetual/occasional/extra = 1 0 0
  (1) pair eam/alloy, perpetual
      attributes: half, newton on
      pair build: half/bin/atomonly/newton
      stencil: half/bin/3d/newton
      bin: standard
Per MPI rank memory allocation (min/avg/max) = 4.004 | 4.005 | 4.006 Mbytes
Step Temp PotEng Press Lx 
14999500    1961.1951   -657.58723    294869.56    14.870056 
15000000    2046.5185   -645.94925    296421.23      14.8592 
15000500     2099.883    -646.9884    296041.06      14.7478 
15001000     1908.122   -643.31122    302985.75    14.722189 
15001500    2010.2236    -676.1638     304249.5    14.890215 
15002000    1941.7108    -753.4539    293407.33    15.614283 
15002500    1898.3778   -735.44772     302142.7    15.507918 
15003000    1991.6838   -751.66575    299727.61    15.777152 
15003500    1982.3644   -709.93663    300107.89    15.459544 
15004000    1865.7946   -695.06037    298994.68    15.409891 
15004500    1941.6837   -702.98286    297865.02    15.512841 
15005000    2224.6138   -646.01674    300219.95    14.940235 
15005500      1743.35   -572.94723    297599.92    14.577448 
15006000    1936.7699   -679.84732    301425.86    15.044596 
15006500    1958.9848   -707.79783    303432.48    15.310631 
15007000    1949.0986   -699.69905    294894.75    15.202023 
15007500    1857.8456   -699.18912    297897.48    15.121408 
15008000    2065.4808   -741.76774    303692.39    15.584912 
15008500    2021.9497   -741.21701    303431.71     15.70002 
15009000    2063.6566    -719.8505    299100.39    15.503123 
15009500    2019.6972   -649.73299    301524.56    15.199997 
15010000    1964.3836   -668.97666    297707.74    15.366089 
15010500    2161.4229   -622.18354    309800.26    15.013002 
15011000    2020.2833   -732.98625    298868.39    15.706841 
15011500    1966.3388   -732.62826     295262.4    15.973684 
15012000    2066.8076   -668.66961    304292.12    15.309633 
15012500    2099.9851   -632.72483    304756.45    14.983741 
15013000    1932.0974   -676.51113    301095.06    15.265014 
15013500    2072.2619   -696.57959    299731.46    15.365005 
15014000    1786.2802   -687.35578    295386.87    15.333332 
15014500    1908.5999   -626.02526    296121.76    14.957104 
15015000    1952.3696   -676.42898    297413.67    15.331263 
15015500    2125.0742   -695.90754    299278.21     15.75956 
15016000    2091.8182   -611.02241    305575.45    15.032446 
15016500    2167.5451   -654.54238    301533.34    15.282585 
15017000    1945.0229    -723.7169    302162.78    15.737241 
15017500    2153.7346   -639.26651    299799.72    15.068726 
15018000    1996.6685   -660.68638    301991.35    15.297683 
15018500    2038.1899   -630.89945    309553.52    14.898948 
15019000    2073.7145    -708.9803    297706.46    15.731063 
15019500    1948.6148   -647.45752    300709.26    15.220055 
15020000    2125.2302   -706.61562    299794.66    15.627316 
15020500    2046.8289   -704.18362    300643.11    15.416034 
15021000    1888.9443   -635.52702    301915.26    14.766102 
15021500    2058.8461   -639.00906    299101.91    14.766392 
15022000     1881.357   -620.54944    303023.88    14.748601 
15022500    1966.8935   -618.73947    300734.67    14.681101 
15023000     1973.225   -565.88568    314248.18    14.575145 
15023500    1989.5373   -583.59424    301531.04    14.716175 
15024000    2003.8045   -699.34426    304453.66    15.611453 
15024500    2053.5868   -673.19844    302222.33    15.273019 
15025000    2005.7065   -696.47054     302311.3    15.254662 
15025500    1955.2652   -752.25167    301978.15    15.689134 
15026000    1901.7273   -751.72704    301729.53    15.685091 
15026500    2093.2122   -733.19071    299459.43    15.487019 
15027000    1965.7521   -722.00041    297627.03    15.278028 
15027500    1970.5481   -727.03569    303945.76    15.383511 
15028000    2000.2932   -730.18024    294379.33    15.305708 
15028500    1916.7121   -718.01906    301452.98    15.399762 
15029000    1960.8733   -739.66086    297962.41    15.678157 
15029500    1845.7664   -699.82608    295350.26    15.326319 
15030000    2040.3193   -741.72714    299171.81    15.620097 
15030500    2103.8822   -754.52688    305825.35     15.70022 
15031000     2045.356   -706.36894    309367.58    15.145476 
15031500    1844.1717   -755.93248    280402.82    15.735095 
15032000    1914.4968    -697.9681    305963.79    15.123887 
15032500    1916.6237   -744.62834     297800.2    15.465407 
15033000    2013.6417   -708.41154    305606.04    15.049562 
15033500     2045.318   -746.09651    297645.62      15.4874 
15034000    1917.3132   -733.12136     302018.2    15.355406 
15034500    2025.7412   -720.92135    300275.26    15.280252 
15035000     1833.705   -724.77434    295153.71    15.331512 
15035500    2069.5731   -696.28455    302983.02    15.155638 
15036000    2057.8574   -681.34489    299725.59    14.915157 
15036500    2004.9176    -646.6591    301588.44    14.826996 
15037000    1981.3054   -629.32379    297198.29    14.737818 
15037500     1997.575    -683.7894     297658.8    15.133636 
15038000    1863.6939   -703.30053    294061.97     15.41857 
15038500    2121.7448   -655.61299    301111.44    15.129145 
15039000    2051.9611   -661.53456    300859.56    15.117078 
15039500    2068.7037   -662.75576    300736.94    15.098052 
15040000    2137.4144   -663.89643    301309.55    15.053169 
15040500    2050.5188    -701.2332    297577.86    15.423458 
15041000    2094.7916   -700.46833    297409.78    15.378742 
15041500    1905.8506    -620.3808    304093.44     14.76405 
15042000    1931.3481   -652.02488    295825.89    14.904504 
15042500    1822.7681   -581.59541    310932.82    14.447961 
15043000    1908.0331   -585.67005    289781.14    14.411892 
15043500     2081.761   -628.14559    292849.86    14.508661 
15044000    1847.4925   -629.75444    296617.33    14.511511 
15044500    2066.1721    -624.9133    296931.83    14.424408 
15045000    2123.2773   -623.13879    295271.83    14.448619 
15045500     1875.811   -581.21296    281144.68    14.275177 
15046000    2058.2464   -614.99896    300881.92    14.400704 
15046500    1968.4365   -584.35027    298793.89    14.368497 
15047000    1995.2432   -596.44903    299602.62    14.421265 
15047500    2043.5877    -584.2523    294985.46    14.427185 
15048000    2068.2694   -578.06747     301260.1    14.502031 
15048500    1806.4279   -629.70039    305529.45    14.835017 
15049000    1896.9567   -724.27529    294387.87    15.574597 
15049500    1973.4188   -716.78788    301870.73    15.290973 
15050000    1869.1253   -702.05752    284671.39    15.344897 
15050500    1897.1494   -698.30696    300818.92    15.374435 
15051000    1950.7065   -673.03996    297291.91    15.127815 
15051500    2149.1487   -677.99793    302487.66    15.291139 
15052000    1855.3519    -716.2709    297638.78    15.422795 
15052500    1962.8106   -725.65498    299461.91    15.296249 
15053000    1925.9489   -611.82961    293100.95    14.585489 
15053500    1832.5812   -623.24151    299575.19    14.662512 
15054000    2164.0264   -648.94593    298456.91    14.799695 
15054500    2204.6318   -656.11653    298507.38    14.796012 
15055000    1952.8528    -717.3385    290486.97     15.38441 
15055500    2130.7166   -691.69775    305547.66    15.126132 
15056000    2221.2783   -726.01312    304558.11    15.244862 
15056500    2095.0792    -706.7892    300976.89     15.18212 
15057000    1974.6802   -649.19766    299116.37    14.835981 
15057500    1981.8142   -669.92411    303077.57    15.039229 
15058000    2066.3842   -656.96685    298066.74    14.891325 
15058500    2023.1034   -606.63933     312049.6    14.378108 
15059000     2226.361   -607.03451    305860.94     14.55786 
15059500    2029.8963   -719.58882    303074.41    15.305423 
15060000     2101.945   -641.59286    303329.51    14.762368 
15060500    2191.5927   -693.08916    300096.61     15.19181 
15061000    2114.4847    -634.9051    305363.59     14.71926 
15061500    2016.1882   -683.37412    303395.83    15.117509 
15062000    2164.9547   -672.77516    299032.62    15.032806 
15062500    1954.8442   -662.77007    305120.64    15.014516 
15063000    1990.4263   -656.89764    300669.35    14.863838 
15063500    1980.2529   -676.77316    301452.66    15.030278 
15064000    1877.6557    -649.6929     298081.5    14.828313 
15064500    1987.6215   -686.13176    300413.46    15.165312 
15065000     2112.887   -677.50607    300843.95    15.042139 
15065500    1965.5867   -693.91935    300092.69    15.317533 
15066000    2086.6585   -686.74058    304137.41    15.282786 
15066500    1896.9467   -653.82173    297832.85    15.033249 
15067000    1940.0749    -651.1146    299401.32    15.028875 
15067500    1892.3088   -716.19125    296223.92    15.428743 
15068000    1872.9032   -698.41026     304076.8    15.282696 
15068500    1946.4293   -725.51876    300218.09    15.571995 
15069000    2153.0015   -623.06958    313126.95    14.900683 
15069500    1902.5792   -699.91591    301485.43    15.360618 
15070000    2035.4522   -679.36603    309445.53    15.204358 
15070500    1930.9149   -653.90913     297196.6     15.16407 
15071000    1977.7744   -664.63498    298828.32    15.200599 
15071500    1978.5513   -643.83272    305460.89    15.085534 
15072000    2083.2176   -644.89832    305235.36    15.014702 
15072500    1982.4554   -704.57099    290201.64     15.52781 
15073000    2048.3175   -630.19637    308607.03    14.925602 
15073500    2056.8506   -677.32379    302864.19    15.281494 
15074000    2112.6498   -736.74866    298286.66    15.583118 
15074500     2062.985   -730.22996    305586.56     15.45731 
15075000    1998.4045   -752.47981    291942.15    15.571955 
15075500    2122.2394    -742.0811    286359.54    15.321371 
15076000    2004.8803   -721.59094    308109.57    15.105556 
15076500    1917.9678   -750.89748    300810.98    15.521945 
15077000    2170.3271   -659.99702     307502.8     14.70391 
15077500    1846.3969   -635.94387    294122.92     14.71794 
15078000    1913.9483   -637.02562    308491.38    14.686602 
15078500    1947.1598   -657.12386     299737.8    14.778419 
15079000    1927.0555   -761.34237    278805.35    15.614258 
15079500    2185.8581   -736.19504    304557.87    15.334279 
15080000    2045.8778   -717.11429    303963.77     15.17723 
15080500    2116.6796   -720.61762    307889.39    15.317242 
15081000    2041.2654   -723.49105    300999.72    15.423353 
15081500    2012.7997   -684.36141    297332.54    15.244367 
15082000    2014.5311   -684.28902    300122.95    15.299187 
15082500    2052.0241   -651.47606    303719.84    15.015383 
15083000    2261.7183   -671.07435    300762.66    15.172823 
15083500    1925.6802   -662.30251    294504.91     15.22455 
15084000    1847.8049   -635.15267    301441.08     14.83762 
15084500    1976.7212   -690.11482    299191.05    15.167322 
15085000    1894.8245   -730.80416    303016.23    15.467837 
15085500    1908.1685   -755.33309    309446.92    15.611718 
15086000    2152.3732   -763.44479    292957.92    15.638256 
15086500    1882.3298   -738.96185    301554.23    15.421697 
15087000    2051.3677   -669.08149    295904.97    14.841788 
15087500    1864.7074   -628.00187    300138.64    14.571495 
15088000    2018.3954    -594.0328       302677    14.411825 
15088500       2054.4   -587.40836    306921.87    14.354052 
15089000    1909.3211   -584.78214    298273.89    14.484555 
15089500    2011.6009   -579.41474    315214.91    14.339032 
15090000    2098.3826   -586.00288    301473.06    14.360581 
15090500    2000.1604   -627.39541    294171.85    14.553465 
15091000    2148.7424   -658.98757    304211.06    14.712269 
15091500    1863.7473   -721.13542    307610.74     15.10534 
15092000    1948.7464   -726.28645    303372.18    15.326899 
15092500    1913.0348   -694.86259    304528.23    15.076245 
15093000    2091.3279   -603.83245    295457.72    14.607755 
15093500    1874.6766   -647.21689    296503.62    14.941968 
15094000    2000.4985   -691.29422    298720.93    15.403407 
15094500    2144.2281   -706.93325    302709.02     15.43915 
15095000    2062.0029   -657.99806    298628.28    15.049177 
15095500    2177.0186   -725.36344     298461.3    15.614281 
15096000    1951.5168   -654.56859    299169.66    15.063592 
15096500    1947.4927   -677.67176    304945.31    15.211645 
15097000    2020.1983    -646.6893    305539.41    15.087489 
15097500    1953.3527    -676.9097    302611.47    15.227865 
15098000    1867.9354   -598.87311    292446.61    14.661003 
15098500    1931.6619   -583.98363    293287.04    14.602809 
15099000    1841.3275   -585.42647     299397.9    14.561692 
15099500      1911.22   -590.39422    297393.25    14.641583 
15100000    1879.9286   -630.30591    298027.14    14.799052 
15100500    1982.0966   -626.42638    304691.83    14.727086 
15101000    2163.0757   -717.11766     300008.2    15.218336 
15101500    2019.2983   -711.84747     302967.2    15.269527 
15102000    2030.1668    -696.1751     298930.2     15.14437 
15102500    1775.7935    -717.2253    299310.42    15.263729 
15103000    2038.2886   -733.71936    304279.93     15.35664 
15103500    1816.8097   -736.39976     300707.4    15.342274 
15104000    1915.7745   -726.38273    300506.01    15.322005 
15104500    1873.6371   -757.90869    293169.19    15.611601 
15105000     1931.386   -633.71071    308644.57    14.675128 
15105500    1944.7351   -708.45791     300839.8    15.239542 
15106000    2048.0893   -703.22087    300350.74    15.168518 
15106500    2110.3286   -712.80544    299973.96    15.229483 
15107000    2151.8932   -649.89652     302065.3     14.85816 
15107500    2019.7223   -639.35327    297213.56    14.841918 
15108000    1792.2634   -650.05426    297993.91    14.960508 
15108500    2282.8668   -659.29095     300336.8    14.941799 
15109000    1884.0557   -677.67864    301114.21     15.06223 
15109500    1851.4814   -729.76833    301827.91    15.630342 
15110000    2128.3382   -706.79878    302564.03    15.233838 
15110500    1999.6633   -643.86993    307366.97    14.716764 
15111000      1921.35   -651.49726    286920.36    14.761086 
15111500    2137.6473   -711.93616    303866.77    15.173991 
15112000    1823.6033   -697.50987    300206.12    15.063513 
15112500    1794.4055    -687.6647    302692.59    15.049726 
15113000    1944.7757   -689.50639    300117.44    15.124888 
15113500    2089.6031   -729.46563    299871.56    15.437557 
15114000     1952.425   -733.01294    301308.76    15.441056 
15114500    2034.0339   -746.89248    302642.63    15.705217 
15115000    2185.9995   -697.77303    311145.12    15.066829 
15115500    1856.1322      -644.52    296342.43    14.805845 
15116000    1955.2934   -697.24284    291308.53    15.172284 
15116500     1943.585   -731.72739    298186.78    15.514387 
15117000    1993.1907   -741.39411    301263.62     15.84856 
15117500    2118.9643   -747.51472    297922.45     15.85219 
15118000    1868.9107    -732.8019    294463.75    15.797188 
15118500     2051.212   -710.82782    297040.99    15.380536 
15119000     1909.355   -696.75806    297426.96    15.345588 
15119500    2050.7839    -714.4972    302459.33    15.503812 
15120000    1971.9263   -693.78002    293059.02    15.348334 
15120500    1954.1964   -709.94378    301194.03    15.449973 
15121000     2049.718   -725.24423    301204.58    15.595255 
15121500    2035.6647   -618.39612    304335.97    14.834936 
15122000    1967.6983   -712.23279    301234.99    15.538587 
15122500    2008.3584   -669.71827    304235.37    15.250083 
15123000    1881.6047   -660.31601    298807.17    15.277882 
15123500     2037.956   -712.61147    300037.73    15.706776 
15124000    2089.1907   -654.19895     300823.2    15.256792 
15124500    2101.3052   -674.80303    298467.65     15.45668 
15125000    1978.3353   -702.13487    298475.08    15.626036 
15125500    2017.0844   -713.14973     300550.7    15.689614 
15126000    1981.6037   -634.73063     299839.5    15.148089 
15126500     1854.649   -665.84531    298361.86    15.396695 
15127000    2001.4595   -704.33137    294600.23    15.725272 
15127500    2109.9011   -698.50601    305017.34    15.534226 
15128000    1978.1202     -678.904     303180.5    15.488218 
15128500     2021.662   -746.89663    283736.04    15.955497 
15129000    1923.4018   -751.68407    299359.89    15.795751 
15129500    1928.0384   -736.03682    296559.59    15.876299 
15130000    1882.6024   -717.82703    299234.35    15.760006 
15130500     2036.688   -645.67911    298467.76    15.225719 
15131000    2051.8735   -661.60521    295061.67    15.385632 
15131500    2071.6356   -596.54911    303006.99    14.831437 
15132000    1892.5716   -597.33287    294710.27    14.725777 
15132500    2021.4237   -609.33715    311076.46    14.621203 
15133000    1829.3328   -576.78173    323268.73      14.4929 
15133500    2101.1957   -587.22167    293145.31    14.618991 
15134000    1974.0889   -581.52318    294357.67    14.404409 
15134500    2096.9379   -578.40955    303334.33    14.394371 
15135000     2028.176   -673.04792    295638.59    14.848453 
15135500    2023.6018   -677.81086    299164.97    14.954682 
15136000     2060.835    -743.5785    300285.69    15.400607 
15136500    1977.2782   -749.21999    295760.29     15.41303 
15137000    2039.4464   -697.80947    297495.18    14.902165 
15137500    2046.1121   -714.85165    274106.92    14.992334 
15138000    2035.2856   -657.82265    297851.35    14.624099 
15138500    2241.6301   -738.78991    285539.64    15.052995 
15139000    2053.3965   -660.78842    291204.42    14.644599 
15139500    2079.3341   -691.10361    298280.56    14.700998 
15140000    1814.0607   -697.16959    290391.14    14.787554 
15140500    2073.7979   -712.74654    295396.86    14.892502 
15141000    2013.9504   -716.98365    309657.93    14.872939 
15141500     1913.737   -713.95042    305417.51    14.803999 
15142000    2069.6126   -716.07855    288939.68    14.882928 
15142500    1976.8302   -693.57574    295065.67    14.736755 
15143000    1847.0475   -677.14422    299239.65    14.647911 
15143500    2098.6551   -675.35498     294817.2    14.658834 
15144000    2075.9392   -725.71421    303867.21    14.917555 
15144500    1923.6411   -720.72949    299357.48    14.886978 
15145000    2023.2537   -712.68236       302305    14.849669 
15145500    1867.9575   -710.15083    307360.59    14.830223 
15146000    1758.0169   -673.75976    306846.23    14.603463 
15146500    1979.5334   -651.82236    300629.96    14.488327 
15147000    2120.2275   -726.81929    299144.68    15.005845 
15147500    2042.4149   -684.14346    309650.29    14.625731 
15148000    1953.4533   -699.72985    300144.48    14.899689 
15148500    1945.3623   -643.74016       295960    14.676214 
15149000    2102.6075   -662.01484    304952.94    14.683041 
15149500    2029.9445   -683.39453    300695.14    14.794605 
15150000    2090.0138   -664.40999    303006.98    14.632012 
15150500    1990.5436   -717.06335    304260.39    14.929615 
15151000    1701.4045   -703.74233    294055.25    14.801061 
15151500    2162.8248   -725.01005    305524.57     14.94768 
15152000    1885.8361   -725.20186    300929.86    14.992419 
15152500    2047.3864    -687.2739    305227.26    14.655804 
15153000    1921.4772   -695.33392    302895.93        14.76 
15153500    2048.1177   -717.07747    308319.87    14.866503 
15154000    2083.2141   -718.70466     302617.8    14.859269 
15154500    1939.7619   -691.41255    301701.31    14.696327 
15155000    1784.4431   -695.72709    301731.67     14.70473 
15155500    2149.7268    -692.8779    295255.06    14.721234 
15156000    2022.0428   -708.49967    306675.89    14.831766 
15156500    2042.2767   -671.91279    295701.98    14.662953 
15157000    1847.1645   -625.57185    302261.12    14.471731 
15157500     1912.606   -718.52496    303447.92    14.994558 
15158000    2233.8419   -663.18576    298098.59     14.58625 
15158500    1971.3681   -650.26362    296047.88    14.565186 
15159000    1943.2715   -660.21722    300848.04    14.644364 
15159500     2001.668   -668.37728    285145.14     14.64718 
15160000    2108.8272   -667.36194    300491.73    14.589312 
15160500    2023.7017   -661.33969    302586.46    14.569424 
15161000    2031.6318   -712.31314    301166.02    14.891605 
15161500    2279.0879   -658.65349    303364.55    14.572079 
15162000    1903.5754   -720.84052    298800.01    14.885048 
15162500    1769.5108   -684.31828    292305.44    14.798381 
15163000    2157.7511   -701.45677    298900.89    14.900498 
15163500    1988.6357   -703.12388    301225.06    14.910053 
15164000    1912.7748    -651.1232    304217.48    14.696343 
15164500    2131.7914   -701.61895    299228.36    14.950418 
15165000    1941.2977   -674.51757    298595.86    14.738169 
15165500    2044.2882   -676.57343    300334.42    14.789723 
15166000    2074.0286   -661.81559    298005.15    14.727647 
15166500    1960.5653   -643.44203    305007.39    14.504895 
15167000    2136.0809   -657.36469    305645.45     14.64462 
15167500    2065.1149    -652.2092    295482.75    14.663576 
15168000    2100.3025     -665.203    290093.07    14.634462 
15168500     2188.289   -651.29009    297475.61    14.601211 
15169000    2038.3069   -713.92943    303669.88    14.982221 
15169500    2263.0678   -710.07929     305213.3    15.024647 
15170000    1980.2788   -637.25785    302109.95    14.690974 
15170500    1952.8156   -646.14889    305200.71    14.655336 
15171000    1875.8664   -647.44941     295739.8    14.730783 
15171500    1952.4144   -651.42032    298431.95    14.727841 
15172000    1998.3329   -640.38231       300406    14.723735 
15172500    2003.1138   -655.57212    295287.05    14.844444 
15173000    2106.8362   -575.03367    317203.72    14.370636 
15173500    2152.3207   -580.87128    300585.18    14.396085 
15174000     1994.653   -581.91519    306559.38    14.370312 
15174500    1928.7447   -591.24807    292360.46    14.405232 
15175000    1911.7199   -725.01354    304620.57    15.219503 
15175500    1870.3709   -723.37986    304230.37    15.085718 
15176000    1956.4439   -726.13441     304170.3    15.216135 
15176500    1977.7345   -744.92254    299738.88     15.35054 
15177000    1745.7531   -706.28183    303675.16     15.22588 
15177500    2125.4101   -718.24109    308474.14     15.18278 
15178000    2089.7417   -716.39596     301204.3    15.104549 
15178500    1815.5274   -709.32383    301118.91    15.060138 
15179000    1927.8728   -695.43412    301647.34    15.049336 
15179500    2112.6584   -731.98701    289436.92    15.377166 
15180000      2003.93   -705.59173    294215.99    15.346753 
15180500    2008.7495   -690.31983    297862.19    15.242309 
15181000    1989.6556   -659.91038    300013.25    15.040902 
15181500    2095.0261    -658.2765    302089.02    15.118889 
15182000     2018.682   -668.17978    300765.44    15.012458 
15182500    1962.9943   -645.24595    301323.26    14.683458 
15183000    2128.9316   -654.40053    305333.22     14.70184 
15183500    2292.3828   -675.44947     298954.4    14.764342 
15184000    2105.6332   -701.57588    306122.53    14.757154 
15184500    2032.0203   -669.22818    312109.45    14.584096 
15185000    2074.6786   -672.12948    297206.34    14.637397 
15185500    2092.9985     -647.899    303690.67    14.557467 
15186000    1902.3658   -674.15081    295127.87     14.71255 
15186500    1956.3233   -653.81396    301638.26    14.573006 
15187000    2051.5258   -645.13329    296074.18    14.494212 
15187500    2104.2833    -725.5329    281008.59    15.013534 
15188000    1995.1959    -642.9437    299451.32    14.446378 
15188500    1826.9865   -722.43488     292631.7    14.935663 
15189000    1899.2566   -692.88193    304714.33    14.798961 
15189500    2117.3601   -675.16068    299362.52    14.665796 
15190000     1921.007   -677.37672    300627.02    14.661315 
15190500    2046.4848   -704.88708     302811.2    14.811443 
15191000    1961.0895   -668.70628    300613.97    14.650398 
15191500    2298.2417   -694.78363    297142.99    14.739721 
15192000    2126.7213   -644.81124    297969.23    14.480395 
15192500    1907.8275   -691.86052    304946.87    14.787895 
15193000     2210.612    -712.8262    300329.08    14.912579 
15193500    1917.1339   -696.81121    296209.83    14.936618 
15194000    1944.5265   -628.96063    315563.46    14.490338 
15194500    2024.6676   -699.01479    304950.88    14.864554 
15195000    2070.4618   -666.44445    303941.95    14.651073 
15195500    2098.3944   -654.56436    298655.54    14.564481 
15196000    1943.2368   -690.12865    285453.64    14.861434 
15196500    1930.6778   -677.14735    293325.13    14.660105 
15197000    2078.0929   -663.14611    294493.42    14.627673 
15197500    1865.6878    -656.7045    308079.67    14.573711 
15198000    2024.7955   -683.71002    305374.23    14.710254 
15198500    2053.8661   -621.27257    300362.14    14.375508 
15199000    2108.4293   -671.94326    295622.76     14.67475 
15199500    2082.5073    -640.6606    304240.56     14.46266 
15200000    1882.7487   -724.41836    294451.22    14.995658 
15200500    1952.5278   -630.15832    297300.03    14.420483 
15201000    1937.0679   -658.29674    296101.82     14.62897 
15201500    2000.7205   -663.26118    300988.46    14.644551 
15202000    2256.0723   -651.86765    317401.57    14.527255 
15202500     1964.921   -625.64403     305709.5    14.361991 
15203000     1849.665   -719.41114    304580.64    14.932982 
15203500    2031.9294   -715.62236    303001.72    14.816717 
15204000    2023.9878   -717.72462    305623.67    14.838373 
15204500    2172.5831    -709.7808    304342.68    14.822738 
15205000    1964.3972   -716.12913    306968.83    14.861507 
15205500    2019.6229   -628.14932    309981.88    14.429855 
15206000    2118.2593   -718.40266       299238    15.053561 
15206500    2142.8968   -693.05005    301451.12     14.77996 
15207000    1906.2269   -705.13461    302837.61    14.871949 
15207500     1897.609   -688.65913    308967.13    14.805378 
15208000    1887.5986     -693.112    302877.93    14.790705 
15208500    1789.7102   -693.53219    292791.48    14.791776 
15209000    1868.6015   -649.29867    306520.82    14.549591 
15209500    2152.6901   -682.50979    304679.98    14.717067 
15210000    2000.8012   -657.17138    307685.11     14.55644 
15210500    2124.0095   -695.06963    307233.02    14.816698 
15211000     2106.114   -661.95463    306437.47    14.585398 
15211500    1933.2828   -729.04602    301601.78    15.048454 
15212000    1906.2376   -690.45293    295187.82    14.745419 
15212500    1950.5053   -641.04742    291881.83    14.423787 
15213000    1983.7437   -646.76397    296494.08    14.446213 
15213500    1940.2974   -724.91997    300337.76    15.019087 
15214000    2003.5392   -648.82607    291372.75    14.551872 
15214500    2097.7456   -654.26843    300686.67     14.56716 
15215000    2011.4383   -694.12657    287661.72    14.793197 
15215500    2082.9288   -709.86621    309693.45    14.829674 
15216000    1867.4863   -676.83745    281461.53     14.66748 
15216500    2134.1737   -710.52884    305513.66    14.824491 
15217000    1993.2461   -709.39004    303509.44    14.820981 
15217500    2095.9372   -720.33582     308985.9    14.884276 
15218000    1903.1377   -692.98406    299596.71    14.715027 
15218500    2107.6933    -685.7726     308503.2    14.777398 
15219000    1932.8984   -609.81613    310950.92     14.35122 
15219500    2078.5415   -663.78689    305147.56    14.675358 
15220000    1899.2658   -673.06122     293144.2    14.699205 
15220500    1906.1385   -679.29372    305347.48    14.752234 
15221000    1901.2761   -707.48448    299072.91    14.953211 
15221500    2035.8526   -648.88811    314895.67    14.624567 
15222000    2092.1769   -729.77924    299411.11    15.271987 
15222500    1995.1794   -733.00431    298386.72    15.429619 
15223000    1994.0324    -687.2588    297446.91    15.291272 
15223500    2017.5212   -693.71297    302289.67     15.29132 
15224000    1962.4571   -625.18804     305242.8    14.669606 
15224500    1861.6493   -671.65019    297076.48    14.898553 
15225000    1946.8577    -625.8256    303441.21    14.623595 
15225500    2050.4517   -654.14488     305539.3    14.644849 
15226000    2191.4289   -598.95561    307902.13    14.354956 
15226500    1850.5839   -659.48949    293422.89    14.693309 
15227000    1965.7905   -676.78139    303280.01    14.629782 
15227500    2009.3051   -690.52637    299725.32    14.665202 
15228000    2078.5349   -706.33332    296950.29    14.697833 
15228500    2011.8991   -720.10161    298761.03     14.92861 
15229000    2080.9217   -713.61912    304270.47    14.971918 
15229500    2051.4136   -733.12328    298664.97    15.333618 
15230000    2067.1868   -662.63997    301735.37    14.873192 
15230500     2105.793   -707.01522    301723.53    15.222044 
15231000    2178.5905   -720.51757    306466.17    15.273311 
15231500    1882.2575   -651.09336    304530.52    14.916045 
15232000    2117.5699   -651.84444    304046.43    14.980462 
15232500    2027.1633   -736.19087    282751.24    15.549386 
15233000    1945.8941   -744.99131    305432.55     15.62222 
15233500    1972.4234   -734.88307    304821.27    15.499458 
15234000    2122.7021   -741.89415     303088.9    15.362952 
15234500    1898.2768   -736.98409    297084.39    15.431541 
15235000    2088.3019    -713.9062    291264.41    15.449414 
15235500    2006.3297   -662.41393    301289.78    14.989563 
15236000    2038.0201   -653.17012    301960.99     14.87569 
15236500    2118.0794   -682.76687    301119.17    15.044025 
15237000    1887.1005   -696.25463    302453.36    15.248231 
15237500    2115.7766   -648.40606    303972.87    14.810479 
15238000     1953.502   -659.07289    301941.43    14.920025 
15238500    2111.4544   -657.52391    302710.66    14.768054 
15239000    1786.7572   -628.02011    293575.44     14.60183 
15239500    1967.9316   -631.41557    292894.72     14.53393 
15240000    2129.5627   -615.87006    302352.19    14.459554 
15240500    2136.1901   -617.38332    310873.61    14.402834 
15241000    2152.2593   -652.54543    308247.51    14.642934 
15241500    2053.8375   -628.58565    309223.11    14.636027 
15242000    1946.3767   -690.34087    300948.51    15.069318 
15242500    2090.1509   -645.82361    303754.54    14.797603 
15243000    2173.1536   -635.52239     297539.2    14.784772 
15243500    2053.9042   -692.50843    299398.56    15.238464 
15244000    2074.5523   -706.60297    288525.09    15.440112 
15244500     1929.737   -705.06303    295752.36    15.441782 
15245000     1833.317    -729.9452    293726.48    15.570901 
15245500    1894.9085   -729.96584    297923.16    15.546768 
15246000    1912.4335   -715.76777    298497.05    15.550103 
15246500     1850.539   -682.70348    300528.22    15.342595 
15247000    2002.7116   -708.84283    305655.72    15.535654 
15247500    1717.8135   -727.33749    296925.71    15.729086 
15248000    2178.1491   -692.90128    304302.05    15.302674 
15248500    1920.0951   -678.13447     303035.6    15.089315 
15249000    1969.9343   -730.13683    300271.62    15.560042 
15249500    2019.8926   -727.61058    299207.16     15.51951 
15250000    2021.5343   -619.43511    307919.48    14.696247 
15250500    1893.4686   -636.48208    304946.29    14.732379 
15251000    2016.4836   -626.39858    304124.26    14.687868 
15251500    2004.9308    -682.5785    297227.96     14.96171 
15252000    1951.7205   -720.87779    297544.28    15.271389 
15252500    1917.1171    -713.4674    297024.79     15.17771 
15253000    1904.2238   -735.42634    300045.47    15.399616 
15253500    1886.3491   -704.49741    299570.56    15.099099 
15254000    2141.7799   -682.50832    298378.06    15.132327 
15254500    1980.6145   -685.73681    304472.57    15.225579 
15255000    1908.9508   -732.54429    302020.27      15.5232 
15255500     2063.021   -744.11443    304543.55    15.490674 
15256000     1943.976    -731.4913    304222.36    15.495785 
15256500    1844.0551   -722.94101    297350.03    15.523503 
15257000    2092.1493   -694.35688    306632.94    15.386435 
15257500    1907.0446   -654.73684    297778.45    15.022004 
15258000      2180.19   -724.62462    301353.62    15.533339 
15258500    1878.3216   -639.98895    299391.85    14.739576 
15259000    2079.1662   -584.13399    317191.81    14.513132 
15259500    2021.6089   -578.60188    313069.55    14.518953 
15260000    2059.8646    -630.3248    301346.52    14.667411 
15260500    2150.6211   -682.94299    299738.12    15.270391 
15261000    2087.9138   -711.41286    298944.63    15.524689 
15261500    1938.8013   -629.56542     301901.8    14.904011 
15262000    1930.4255   -660.62259    297952.66    15.103118 
15262500    1900.0045   -668.00403    296048.18    15.214108 
15263000    2181.0466   -659.53647    300859.52    15.111269 
15263500    1868.3023   -702.11478    305552.64    15.351296 
15264000    1940.7547    -693.7124    301010.13    15.239499 
15264500    2067.2577   -704.18775    304261.15    15.170718 
15265000    2032.6937   -696.68977    307380.02    15.215716 
15265500    2147.8087   -647.39712    300320.78    14.707743 
15266000    2031.0017   -676.90655    301678.27    15.000336 
15266500    2069.4346   -714.99258    302621.52    15.218984 
15267000     2131.405   -692.23573    305158.52    14.979621 
15267500    2079.0449   -627.09169    305264.41    14.616901 
15268000    2078.0714   -627.57533    307044.24    14.576991 
15268500    2067.3019   -659.58714    304396.72    14.954492 
15269000    2065.6261   -711.17927    307166.86    15.247865 
15269500    1924.5143   -752.58952    284366.97     15.58847 
15270000    1800.9301   -723.59477    295252.87    15.252263 
15270500     1984.648   -725.86524    295292.53     15.12727 
15271000    1977.6767   -681.31709    301362.75    14.715684 
15271500    1916.8808   -691.14936    292357.74    14.766828 
15272000    1956.6999   -671.21625     308700.3    14.640715 
15272500    2034.9479   -693.89873       304736    14.751464 
15273000    2027.2967   -687.07861    298269.41    14.734496 
15273500    2149.7157   -651.87938    300182.51    14.559769 
15274000    2025.1831   -661.03656     305062.3    14.532496 
15274500    2148.8282   -716.43065     308094.1    14.899332 
15275000    2125.8625   -689.50356    303525.37    14.782583 
15275500    2055.3928   -669.95624    298789.85    14.658411 
15276000    2005.3375   -638.95683    294516.72    14.432138 
15276500    2077.4789   -718.66778     302894.2     15.12846 
15277000    1983.6307   -754.21766    306369.42    15.432529 
15277500    1909.5138   -734.19685    293745.81    15.330254 
15278000    1999.2534   -715.62629    305446.39    15.251394 
15278500    1951.0573   -750.60392    309423.56    15.575066 
15279000    2081.8758   -744.44576    303697.12     15.51464 
15279500    1951.2127   -728.32233    300711.57    15.591313 
15280000     1988.143   -679.34058    301802.34    15.259692 
15280500    1977.8096    -638.1919    300850.07    15.004238 
15281000    2055.6481   -683.13232    306023.37    15.202039 
15281500    2013.5232   -715.72283    298124.64     15.53902 
15282000     2018.292   -749.97458     298572.3    15.679005 
15282500     1937.141    -756.5597    296655.49    15.536352 
15283000    1929.0002   -651.96207    302280.62    14.670406 
15283500    1940.5846   -707.17052    297598.82    15.135757 
15284000     1853.041   -749.36953    301513.24    15.712559 
15284500     1831.588   -717.01802    297721.38    15.398135 
15285000      2126.89   -729.60386    300525.39    15.442603 
15285500    2067.9529   -719.58967    300443.22    15.385443 
15286000    1874.9008   -665.20957    301550.23    15.011885 
15286500    2027.4674   -700.98611    299690.48    15.475943 
15287000    2010.1892   -692.48581    307068.74    15.242756 
15287500    1838.8231   -700.58348    297283.22    15.623984 
15288000    1943.9212    -700.0202    297813.01    15.647921 
15288500    1914.7506   -637.53344    297947.33    15.232395 
15289000    2105.4008    -678.3343    303634.92    15.552616 
15289500    1956.5325   -693.27099    302728.85    15.613959 
15290000    2036.6121   -695.58837    297546.96    15.632587 
15290500     1872.785    -693.5114    299100.94    15.643466 
15291000    1828.3525   -736.64229    292456.99    15.973488 
15291500    2101.0296   -732.88405    301104.02    15.618442 
15292000    2087.9616   -719.36142    300698.87    15.611728 
15292500    1925.8203    -610.6608    306957.43    14.834797 
15293000    2150.1778   -713.76127    297696.77    15.408404 
15293500    2144.9988   -665.04643    298801.71    14.963132 
15294000    2060.5642   -671.49538    301165.63    15.148791 
15294500    2049.7638   -660.04034    300995.13    15.069542 
15295000    2037.1388   -655.16704     300256.4    15.037987 
15295500    2035.8079   -673.62212    302398.46    15.224018 
15296000    2050.5228   -695.24319       300849    15.389093 
15296500    2083.7916   -698.00768    301028.23    15.481284 
15297000    1951.5985   -668.00145    299516.86    15.077791 
15297500     2177.182   -726.23983    301317.43    15.504538 
15298000    1959.2153   -645.62157    301584.36    14.866898 
15298500    2021.5433   -686.30013    291550.23    15.188591 
15299000    1944.4156   -629.58599    295339.04    14.754032 
15299500    2120.0428   -577.02134    328255.14    14.373697 
15300000    1895.2743   -598.37385     293920.9    14.577238 
15300500    2015.6603   -740.85813    283992.92    15.444762 
15301000    2216.0209   -741.43008    302190.56    15.570561 
15301500    1952.2772    -745.6748    300631.18    15.644321 
15302000    2169.4047   -741.90559    300100.65    15.546441 
15302500    2047.7323   -749.66279    300768.47    15.704458 
15303000    1813.9923   -710.04985    303787.61    15.410596 
15303500    1795.4511   -736.39362    300192.99    15.508055 
15304000    2027.2759   -710.50589    299181.87    15.288857 
15304500    2059.3808   -627.11517    309910.36    14.677045 
15305000    2092.6223   -622.38509    303519.43     14.72857 
15305500    2225.1577   -645.87641    301244.22    14.864801 
15306000     2047.746   -646.49343    305974.85    14.768235 
15306500    2060.1339   -632.99562    298715.09    14.767794 
15307000    2059.7588    -633.6901    298546.78    14.826212 
15307500    1919.6128   -643.49022     293218.9    14.817601 
15308000    1938.7054   -632.63089    298438.08    14.724624 
15308500    1918.9165   -637.35718    306821.15    14.704737 
15309000    1987.8567   -651.92093     297843.6    14.811041 
15309500     2047.717   -651.33111    292348.16    14.770781 
15310000     1966.237   -644.78819    303321.84    14.717324 
15310500    1953.9531   -586.50494    301077.96    14.596568 
15311000    2184.9372   -595.01953    300743.23    14.649791 
15311500    2057.8552   -581.79943    287562.08    14.578115 
15312000    2098.8567   -628.13903    301951.04     14.64221 
15312500    1796.6867   -614.60892    295057.18    14.734256 
15313000    1793.9858   -629.75826    298085.71    14.715616 
15313500    1975.5047   -631.63725    309159.67    14.722304 
15314000    1818.1846   -729.75821    286780.17    15.312757 
15314500    2073.4864   -747.11499    308724.65    15.334392 
15315000     2020.311   -739.90084    295998.04    15.358441 
15315500    1875.9966   -722.90279     298035.7    15.165134 
15316000    1950.7152   -736.10186    295610.07     15.04389 
15316500    1910.7938   -724.44244    298618.46    15.044822 
15317000    2058.6067   -719.17399    309030.64    15.143133 
15317500    2144.1027   -734.95977    299356.65    15.228459 
15318000    1884.6198   -731.80216    296441.23    15.354973 
15318500    1946.7831   -731.83443    299636.86    15.283468 
15319000    2072.4941   -745.69163    310310.54    15.373165 
15319500    2166.1187    -675.3071    293888.06    14.830536 
15320000    1960.8913     -645.428    293401.15    14.626391 
15320500    1928.7486   -653.48135    291808.66    14.720355 
15321000    1989.4882   -652.73635    299934.61    14.947091 
15321500    1964.8363    -668.7658    301079.45    15.001781 
15322000    2159.8739   -684.39897    299384.25    15.172081 
15322500    1970.6259   -647.12915    300425.52    14.888723 
15323000    1970.0688   -666.57789    300923.02    15.041156 
15323500    1993.9432   -703.44652    305816.44    15.360952 
15324000    2089.7853   -655.98029    299581.21    14.914892 
15324500    2106.2097   -652.18887     298244.1    14.826389 
15325000    2067.0479   -749.76732    296258.59    15.427642 
15325500    2257.0099   -751.96648    307005.32    15.464728 
15326000    1899.9893   -753.11167    307505.15    15.435336 
15326500    2023.5842   -737.09635    299078.37    15.241194 
15327000    1898.4182   -741.63198    303235.39    15.270898 
15327500    2025.1169   -730.93921     300732.2    15.235885 
15328000      2093.63   -705.07426    305059.42    15.025638 
15328500    2097.7742   -757.10916    304591.89     15.32803 
15329000    1813.6009   -649.42144    307784.12    14.673191 
15329500    2021.8017   -612.81925    301630.25    14.445139 
15330000    1811.3854   -584.60149    288790.78    14.449855 
15330500    2064.3547   -572.50574     326546.9    14.392758 
15331000    2054.5776   -705.79261     306282.8    15.369622 
15331500    1946.1979   -717.72936     299903.3    15.409446 
15332000    2149.6978   -719.47029    305999.45    15.330765 
15332500    1997.0322   -693.46908    304780.33    15.180813 
15333000    2077.6405   -752.00764    301083.85    15.696817 
15333500    2114.8664   -742.69932    302894.05     15.57804 
15334000    2120.7003   -739.89938    300334.04     15.52667 
15334500    1965.6941    -682.2874    304917.01     15.24036 
15335000    1924.1326   -658.69861    297529.44    15.036474 
15335500    2015.3987   -664.32357    295543.27    15.303815 
15336000    2115.6176   -651.77744    302600.44       15.085 
15336500    1966.7522   -629.97793     300292.3    15.101558 
15337000    1960.2054   -653.91643    291054.72    15.120955 
15337500    2098.8048   -671.81391    295690.16    15.326678 
15338000     1905.085   -650.91061     295346.4    15.130337 
15338500    2033.4729    -674.7145       302802    15.281195 
15339000    2047.3412    -732.1694    293680.98    15.710081 
15339500    2133.8522   -638.95627    301095.73    14.884707 
15340000    1832.9696   -713.33062    299013.02    15.566398 
15340500    2084.8883   -742.75269    298906.84    15.855082 
15341000    2106.7504    -714.3343    303617.15     15.63237 
15341500    1764.1536    -687.5593    293736.88    15.345153 
15342000    1909.1409    -642.5327    299289.88    15.074219 
15342500    2021.2881   -693.64813    302687.77    15.170392 
15343000    2013.6118   -642.13127    299963.49    14.625536 
15343500    1891.8517   -624.13288     299369.9    14.551675 
15344000    2019.0754   -635.73162    298954.36    14.469054 
15344500    2152.0597   -669.85117    291100.07    14.741539 
15345000    1951.0402   -633.09997    301398.82    14.594152 
15345500    1868.8136   -668.99651     298887.9    14.765525 
15346000    1833.7022   -672.78559    296713.87    14.953686 
15346500    2075.7441   -692.97266    302241.05    15.081323 
15347000    1868.7181   -663.85744    300165.79    14.935458 
15347500    2070.5319   -639.78538    312122.84    14.720009 
15348000    1860.9091   -644.45505    300605.83    14.680887 
15348500    1991.3271   -642.37443    304332.54    14.572016 
15349000    2028.7465   -723.65592    295288.22    15.054747 
15349500    1972.4739   -722.55263     304925.4    14.967382 
15350000    1876.3204   -708.76174    307408.02    15.001188 
15350500    2006.6858   -720.21703     297847.8    15.022847 
15351000    2047.0674   -717.26396    301071.52    15.021636 
15351500    2120.4445   -683.33074    308389.04    14.586673 
15352000    1755.4899   -626.32809    303965.47    14.356804 
15352500    1984.4658   -622.72302    291680.35    14.460719 
15353000    2012.2444   -644.49903    296891.87    14.553871 
15353500    1999.2041   -626.76035    299179.48    14.413963 
15354000    1833.9081   -724.19254     300847.9    14.984107 
15354500    1899.7546   -721.54681    301796.05    14.894013 
15355000    1932.1336   -687.88612     289177.9    14.672342 
15355500    1943.1674   -724.64983    300060.68    14.878987 
15356000    2031.4347   -676.54657    308553.26    14.495468 
15356500    1920.4865   -700.12755    293498.58    14.696614 
15357000    1988.6677   -679.54491    300015.07    14.594805 
15357500    1942.9333   -682.24795    304632.32    14.626911 
15358000    1939.1502   -702.23384    295213.89    14.682574 
15358500    2003.8768   -682.98267    302239.52    14.636669 
15359000    1858.6673     -668.979    299793.08    14.649257 
15359500    2033.9527   -701.26458     297033.8    14.673799 
15360000    1794.2462   -684.24617    306649.97    14.620328 
15360500    1828.1987   -653.11019    301962.68    14.631687 
15361000    2154.2717   -671.23316    294681.83     14.74206 
15361500    1948.3774   -637.12888    307515.52    14.660205 
15362000    2028.1848   -683.29829    299869.06    15.113645 
15362500    2027.9433   -642.40609    295543.19    14.799435 
15363000    2059.2996   -694.76439    300747.12     15.18265 
15363500    2117.4637   -756.36045    285621.96    15.422342 
15364000    1896.4018   -707.78467    305007.74    15.060827 
15364500    1929.6511     -718.123    298077.93    15.037786 
15365000    2024.5006   -723.67633    298508.78    15.064437 
15365500    2215.0698   -730.94877    292449.13    15.015443 
15366000    1869.2025   -732.39637    297747.44    15.237399 
15366500    1908.4277     -735.304     301940.5    15.310232 
15367000    1960.0325   -753.84974    296511.92    15.380421 
15367500    1874.6928   -714.47631    304610.61    15.179485 
15368000    2061.7728   -747.70714    311578.03    15.271949 
15368500    1831.0545   -728.60672    291943.53    14.923141 
15369000    1889.2928    -726.3721    290473.92    14.887892 
15369500     1841.324   -669.63917    294249.73    14.660804 
15370000    1854.9976   -661.69971    298910.28    14.618395 
15370500    2006.9637   -667.10116    295736.28    14.740082 
15371000    1842.1277   -661.54014    302396.65    14.824763 
15371500    2076.8239   -654.54398    301892.02    14.727879 
15372000    1879.5546   -629.24019    296981.39     14.62087 
15372500    2071.6382   -582.88195    283161.98    14.242659 
15373000    1916.1047   -571.33862     320074.5    14.243545 
15373500    1951.5389   -646.91307    305231.11    14.714538 
15374000     1983.609    -635.6105    293999.43    14.506561 
15374500    1960.5523   -673.80388    300090.38    14.677185 
15375000    1764.0315   -624.02966    303032.13    14.408806 
15375500    1899.8411   -687.76041    293977.06    14.784049 
15376000    2027.8387   -756.16687     294180.8    15.403529 
15376500    2166.5399   -744.18449    309020.33    15.292402 
15377000    2032.7532   -757.89173    299703.01     15.35763 
15377500    2041.8261   -752.05591    297860.36    15.378515 
15378000    2014.3515   -735.31373    292196.03    15.357129 
15378500    2121.9556   -724.01723    280318.56     15.28912 
15379000    1922.9398   -716.17783    301591.63     15.25121 
15379500    2165.0545   -629.93536    299237.24    14.526709 
15380000    1928.2744   -716.02595    294918.48    15.298371 
15380500    1951.3171   -710.99704    298162.07    15.221705 
15381000    2021.3504   -662.85784    301008.14    14.978357 
15381500    1964.0778   -706.76114    300309.53    15.463014 
15382000    2114.7021    -641.0974    302298.29    15.006433 
15382500    1951.8238   -700.29245     299842.1    15.390239 
15383000     2011.869   -746.49891    296946.03    15.670501 
15383500    2201.8962   -749.80769    300435.52    15.594582 
15384000    1997.6633   -738.94865    305159.13    15.591597 
15384500    2017.9887   -723.40421    304871.63    15.435302 
15385000    1819.5484   -666.07569    300099.33    15.066062 
15385500      2051.21   -669.00975    300572.72    15.146343 
15386000    1860.1997   -672.57983    298367.48      15.2932 
15386500    2144.6226   -679.12036    302326.43    15.298953 
15387000    2010.6024   -646.88657    297882.06     15.07042 
15387500    2213.1323   -706.32161    291966.26    15.444608 
15388000    2019.8728   -697.82982    303252.42    15.206409 
15388500    2186.2635   -692.32841    302512.81    15.287856 
15389000    2075.0036   -692.32424    300428.85    15.310327 
15389500    2077.9715   -732.68093    303259.95    15.793081 
15390000    1995.4071   -713.87474    294303.13    15.718414 
15390500     2129.562   -705.06806    297588.58    15.494429 
15391000    2016.5339   -616.53729     300549.3    14.947051 
15391500    1975.7892   -608.92899     302029.5    14.670788 
15392000    2087.2079   -613.18361    298149.59     14.73406 
15392500    1992.8268   -593.98379     300066.3    14.658299 
15393000    2307.3065   -656.47052     303794.3    15.119592 
15393500    1990.6705   -620.03122    307541.41    14.959601 
15394000    2154.0249   -665.49189    300738.26    15.300728 
15394500    1989.8684   -640.57254    300064.44    15.027207 
15395000    1925.7167    -642.1486     297674.9    14.996674 
15395500    2030.1098   -702.87803    300451.34    15.539997 
15396000    1967.7906   -674.09722    297115.46    15.225904 
15396500    2012.3657   -665.88209    298136.63    15.254606 
15397000    1996.2926    -678.8099    298351.84    15.228028 
15397500     1941.657   -662.72402    298853.72    15.165488 
15398000    2051.2729   -703.42644    301626.18    15.394586 
15398500    1993.9474   -675.94733    299519.92    15.214117 
15399000    1817.8311   -652.44472    298193.73    15.148696 
15399500    2049.8986   -666.85314    296614.84    15.267143 
15400000    2209.2529   -653.77282    306106.07    14.895347 
15400500    2039.1679   -629.37755    304278.88    14.836415 
15401000    1938.2205   -687.68404    300865.12    15.274117 
15401500    1939.3325   -700.42792    300314.86    15.304261 
15402000    2153.6353    -749.7379    306290.42    15.736286 
15402500    2029.1554   -746.96767    301025.42    15.686468 
15403000    1925.3911   -727.97297    303773.77    15.522447 
15403500    1811.2177    -706.3705    300493.46    15.320524 
15404000    1919.0723    -730.8491    302883.36    15.510663 
15404500    2121.2561    -726.0993    304101.37    15.306625 
15405000    2152.5415   -736.64374    297968.86    15.341009 
15405500    1947.2913   -681.26017    299244.77    15.000832 
15406000    1886.3394    -643.7467    299612.28    14.855696 
15406500    1879.0581   -686.02432    300516.26    15.155939 
15407000    2042.7383   -621.00132    304776.49    14.625308 
15407500    1868.1546   -583.36585    302385.11    14.314934 
15408000    2197.8461   -709.04586    294855.65    15.018347 
15408500    1938.3385    -743.3986    278960.35    15.455227 
15409000    2196.3085   -726.99138    309211.76    15.178146 
15409500    2043.3648   -726.34906    313388.37    15.272557 
15410000    2014.1901   -726.77467    300933.01    15.312399 
15410500    1852.8313   -734.95376    299851.36    15.445619 
15411000    2008.0691    -630.1044    299723.38    14.768925 
15411500    2099.7083   -632.01409    309722.76     14.75309 
15412000    1962.9976   -625.49131    311688.84    14.805746 
15412500    2055.1469   -658.68474    299528.37    14.842475 
15413000    1933.8355   -642.36245    295587.84    14.822403 
15413500     1961.818   -650.47047    289721.22    14.848676 
15414000    2104.2154   -609.95849    305590.92    14.655051 
15414500    2086.5723    -687.0967    298842.15    15.184741 
15415000    1937.8255   -712.55007    300728.88    15.414875 
15415500    2085.5642   -702.84681    297640.54     15.43495 
15416000    1996.8789   -686.98037    302314.34    15.269149 
15416500    2030.0335   -685.43631    299364.94    15.319232 
15417000    2092.0758   -669.86357    297733.23     15.20116 
15417500     1961.038   -650.03803    303033.71    15.053651 
15418000    1938.3786    -710.5814     299624.7    15.404186 
15418500    2046.9227   -744.01475    302004.06    15.496473 
15419000    2120.9883   -755.11893    296763.36    15.646281 
15419500    2246.3632   -728.44543    306714.78    15.282873 
15420000    2003.0525   -743.77807    288409.68    15.590105 
15420500    2072.6275   -724.22406    305716.81    15.298571 
15421000    2089.0555   -722.13611    303722.49    15.305655 
15421500    1875.0365   -694.77005    302378.87    15.349645 
15422000    1905.5539    -695.1091    291188.93    15.423582 
15422500    1865.2026   -748.20082    297849.54    15.668299 
15423000    1902.1966   -733.25081    294744.56    15.517534 
15423500    2010.8147   -722.50473    300570.84    15.395125 
15424000    2009.1853   -707.48901    302193.53    15.238894 
15424500    2037.7706   -756.46788     303318.6    15.668495 
15425000     1994.366   -754.27146    303201.13    15.622943 
15425500     1958.301   -684.45878    302382.09    14.842543 
15426000    2126.9436   -747.78176    294811.35    15.358637 
15426500    2018.7562   -744.41506    301096.33    15.354243 
15427000    1992.7809   -750.87898     299453.9    15.514591 
15427500    2152.9572   -705.19245    300443.75    15.054323 
15428000    1976.2398   -695.44435     298877.1    15.129008 
15428500    2237.4303    -730.0904    308103.24    15.376945 
15429000    2137.9859   -760.54386    295766.09    15.685724 
15429500    1900.3837   -758.31885    297569.79    15.718999 
15430000    2036.7611   -728.48965    304169.91    15.188763 
15430500    2079.7134    -754.5206    295955.99    15.710018 
15431000    2125.8969   -717.40349    305680.44    15.108004 
15431500    2011.2734   -697.87906    313539.05    14.901204 
15432000    1991.1499   -722.62523    298958.56    15.164964 
15432500    2061.4831   -661.17533    299283.11    14.746186 
15433000    2006.4416   -646.15804     301685.3    14.663036 
15433500    2040.6315   -643.15249    305319.07    14.660286 
15434000    1877.4713   -693.77068    305923.74    15.035487 
15434500    2139.0417   -744.69252    301551.28     15.39322 
15435000    2086.7029   -729.28992    299808.37    15.368308 
15435500    1926.3553   -748.73446    298726.09    15.511676 
15436000    1745.7585   -712.55029     300770.5    15.189547 
15436500     1991.394   -750.72733    301141.79    15.539689 
15437000    1967.3745   -732.18904     305127.8    15.515786 
15437500    2109.0936   -681.52593    304264.79    15.292372 
15438000    2018.6675   -651.75078    304687.33    15.055871 
15438500    2114.1862   -670.78975    297738.46    15.321195 
15439000    1950.5436   -659.38784    294238.23    15.170703 
15439500    1824.7832   -639.68876    296290.12     14.98353 
15440000     2085.798   -693.53484    297728.26    15.415036 
15440500    1942.5499    -670.1131    296564.15    15.146789 
15441000     1826.841   -633.73019    303024.07    14.931029 
15441500    2162.7799   -705.38784    302393.28     15.20907 
15442000    1960.8293   -710.64375    303333.31    15.284515 
15442500    2113.0897   -651.35524    302440.89    14.869725 
15443000    1919.7992   -727.78206    288105.58    15.397088 
15443500    1983.6395   -736.46016    296669.47    15.396684 
15444000    1915.5078   -714.30392    298848.06    15.089069 
15444500    2038.3779   -728.22152    300605.15     15.07705 
15445000    2180.3142   -747.54807    301386.88    15.247754 
15445500    2104.7406   -751.40799    302533.87     15.30922 
15446000    1916.5453   -639.26257    289441.49    14.396088 
15446500    2088.2624   -634.06059    297537.47    14.421634 
15447000    1999.6167   -627.01266     294318.1    14.429217 
15447500    1857.8862   -610.93543    300217.71    14.435086 
15448000    2165.3747   -607.01689    295365.02    14.461402 
15448500    1899.7365   -686.20038    299686.89    14.955493 
15449000    2172.8179   -745.93937    302394.22    15.223847 
15449500    1868.7915   -739.64386    299087.35    15.087397 
15450000    2044.7714   -729.09967    294474.81    14.938107 
15450500    2080.9466   -729.04733    297752.96    14.971038 
15451000    2033.7419   -633.61537    306684.33    14.359039 
15451500    1991.2915   -659.91193    297390.53    14.553882 
15452000    1858.2307   -642.79912    297027.75    14.570045 
15452500    2101.7944   -645.66803    298443.09    14.509654 
15453000    1833.7634   -624.85381    299170.68    14.470955 
15453500    1853.8015   -660.02686    296127.66    14.879617 
15454000    1962.4761   -697.05126     303184.1    15.255915 
15454500    2044.8401   -661.68458    297854.94    15.119274 
15455000    2085.8067   -625.76091    307612.96    14.789719 
15455500    2035.3542   -693.53269     299741.5    15.419673 
15456000    2258.6821   -672.21406    301870.79    15.156134 
15456500    1953.4379   -657.99553    305162.86    15.048517 
15457000    2068.5749   -706.59932    302828.33    15.355789 
15457500    1955.9868   -748.70714    297405.07    15.685482 
15458000    1890.3015   -754.23318     299824.1    15.667551 
15458500    2075.9239   -737.27434    296042.75    15.357972 
15459000    1971.8691   -734.96371    302341.85    15.302626 
15459500     1871.957   -744.53585    297479.31    15.415327 
15460000    2053.7167   -723.42731    295559.38    15.081715 
15460500    2040.6651   -723.00292     296492.3    15.108832 
15461000    1912.6581   -648.30811    308703.63    14.639105 
15461500     2040.484   -658.22216     292109.5    14.784631 
15462000    2116.8228   -592.88945    283684.69     14.44011 
15462500    2037.2385   -576.62114    316452.98    14.399798 
15463000    2116.4307   -584.63102    300030.98    14.346698 
15463500    1934.1079   -577.32112    295747.88    14.468644 
15464000    1965.2439   -621.85608     302869.1    14.746276 
15464500     1985.331   -693.69473    296069.48    15.423538 
15465000    2094.3798   -661.53741    301490.41    15.138503 
15465500    2096.3195   -670.76876    296348.05    15.217538 
15466000    1984.7271   -667.81821    296855.28    15.156396 
15466500    1940.1342   -641.04099    301361.94    14.986939 
15467000    2050.3692   -707.66924    302996.19     15.43854 
15467500    2111.5145    -688.7578    302937.49    15.009365 
15468000    1943.5096   -675.89893    298150.78    15.063201 
15468500    1846.3109   -758.08711    295462.18    15.605474 
15469000    2041.4589   -755.48074    302694.92    15.430949 
15469500     1977.704   -684.10281    294404.91    14.831358 
15470000     1822.731   -703.12497    296200.27    15.013639 
15470500    1987.1414    -663.6858    299085.29    14.598645 
15471000    2081.4224   -718.40719    293973.57    14.936623 
15471500    1962.5003   -703.41455    308762.38    14.812713 
15472000    2058.8569   -646.42597    302201.83    14.472927 
15472500    1966.8322   -710.98816    294086.29    14.929558 
15473000    1998.7204    -696.7841    302369.67    14.712627 
15473500     2005.606   -708.60091    308033.21    14.763994 
15474000    2141.7823   -723.91515    300084.28    14.905757 
15474500    2040.5714   -717.46169    303142.85    14.856988 
15475000    1878.8063   -724.24542    297952.38    14.966113 
15475500    2253.8873   -667.39632     308074.2    14.593098 
15476000    2201.5325   -684.97322    309744.26    14.752003 
15476500    1811.0229   -670.18637    309293.52    14.670708 
15477000    1888.2701   -694.83105    299822.08    14.877342 
15477500    2010.0355   -711.83561    293093.01    14.941523 
15478000    1982.5442   -699.60769    301376.07    14.965618 
15478500    1977.3706   -676.32585    297642.16    14.739878 
15479000    2125.6615   -681.67721    306809.25    14.629735 
15479500    1998.3573   -692.52065    296636.82    14.717684 
15480000    1980.1244   -716.81912    309708.45    14.884393 
15480500    2029.9306   -719.18012     299277.8    14.937486 
15481000    2064.0722   -719.16736    304591.03    14.882246 
15481500    1954.9543   -666.35038    301472.51    14.614756 
15482000    2043.2593   -726.63088    295763.94    14.925901 
15482500    1979.4285   -716.01383    297322.51    14.874327 
15483000    2107.9429    -700.4175     299309.3    14.852795 
15483500    2073.1979   -684.01263    291187.21    14.840802 
15484000    1969.6149   -687.16894    300841.54    14.890418 
15484500    1997.9009   -676.97977    307036.64    14.818553 
15485000    1962.4601   -650.54416     300242.7    14.685418 
15485500    2028.1732   -632.62268    315613.65    14.603389 
15486000    1872.1187   -726.81036    297944.05    15.160268 
15486500    2005.6729   -707.78453    300749.94    14.961272 
15487000    2009.0151   -658.44982    307130.19    14.689774 
15487500    1908.9035   -640.23116    308696.54    14.624209 
15488000    1773.6709   -635.96783     298431.3    14.664912 
15488500    1900.6962   -642.36005    302689.38    14.665554 
15489000    1927.0664   -646.07981    298953.34    14.665775 
15489500    2067.2144   -721.83755    300871.62    15.058875 
15490000      1888.21   -731.33406    300557.61    14.990431 
15490500    1747.8987   -684.74501    305461.34    14.607985 
15491000    1976.3805   -689.94335    298445.97    14.660092 
15491500    1955.8193   -728.89908    302045.84    14.952175 
15492000    1919.2301   -706.30792    309004.31    14.851054 
15492500    2072.7344   -675.07212     313350.3     14.53339 
15493000    1930.3343   -720.21553    302493.36     14.92111 
15493500    1918.1027   -683.33357    310385.55    14.581799 
15494000    1871.3951   -690.32879    299980.65    14.602232 
15494500    1980.5972   -693.90952    305789.09    14.578733 
15495000    2000.4747   -681.87542    300146.42    14.672725 
15495500    2208.3675   -688.33403    297441.56    14.757174 
15496000    2199.4719   -632.27347    292231.63    14.438075 
15496500    1899.3581   -594.32444    296588.89    14.337765 
15497000    1873.9067   -636.40963    301218.11    14.609835 
15497500    2095.1602   -657.47246    302220.36    14.719516 
15498000    1893.2873   -692.41244     298408.1    14.819885 
15498500    1996.1224   -682.76179    291290.74    14.698559 
15499000    1902.3087   -703.32882    302764.05    14.811032 
15499500    1975.7838   -684.77202    302475.25    14.612497 
15500000    1979.2352   -700.95549    293212.29    14.702638 
15500500    2045.0215   -699.79401     304498.5    14.681349 
15501000    1946.6446   -653.53752    296539.93    14.507704 
15501500    2015.5023   -733.41535    294953.28    15.173434 
15502000    1962.1136   -741.33936    301419.99    15.336727 
15502500    2151.2302    -758.3264    302985.65    15.329978 
15503000    1991.4005   -710.76186    306730.34    15.039207 
15503500    2037.4392    -767.4274    269464.07    15.606615 
15504000      1965.53   -720.47201    303490.47    15.311143 
15504500    1937.0654   -697.20714    306453.21    14.988363 
15505000    2064.2126   -700.60145    307900.88    15.027329 
15505500     2010.298   -703.65874    303043.95    15.041164 
15506000    1945.7489   -711.49017    297341.78    15.152287 
15506500    2172.8816   -739.10761    301284.32    15.383974 
15507000    1853.1594   -662.03873    293456.01    15.144393 
15507500    2051.7399   -638.31291    306609.04     14.90253 
15508000    2082.2052   -711.17532    303681.09    15.386435 
15508500    2097.1788   -696.43976    299742.95    15.358271 
15509000    1930.1474   -639.23675    302246.96    14.886009 
15509500    1914.7101   -710.78853       298096    15.465913 
15510000    2060.9642   -745.69359     305345.4    15.710457 
15510500    1970.6501   -751.15685    301818.15    15.775767 
15511000    2021.5176   -725.85933    290003.18    15.477933 
15511500    1987.4735   -610.76597    308326.39    14.677539 
15512000    1908.2163   -613.12841    299713.96    14.640504 
15512500    2059.0667   -587.93003     308028.3    14.540966 
15513000    2229.2749   -656.76781     295270.1    14.967618 
15513500    1992.9232   -582.55243       294843    14.634661 
15514000    1884.5453    -681.3972    299788.62    15.373276 
15514500    2072.9247   -701.61316    300006.94    15.602383 
15515000    1969.3176     -696.201    294660.63    15.640817 
15515500    2015.7215   -618.95877    309632.81    15.042735 
15516000     1999.166   -668.21549    298841.37      15.4606 
15516500    2127.4559   -640.01049    299712.13     15.16585 
15517000    1795.2163   -622.07341    300122.15    15.047365 
15517500    1961.2874   -709.98645    297917.48    15.805707 
15518000    2079.5624   -695.25565    302607.14    15.581104 
15518500    1954.0854   -680.39512     300758.6    15.472933 
15519000    2146.4766   -591.57826    301018.75     14.70167 
15519500    2195.4146    -676.7071    303297.96    15.236962 
15520000    1958.4055   -716.19264    301939.24     15.51761 
15520500    1972.4091   -719.34027    296443.66    15.536966 
15521000     2190.443   -708.01021    305175.92    15.211473 
15521500    2054.5816   -711.51259    297891.47    15.290908 
15522000    1901.4207   -697.30706    304807.69    15.167035 
15522500     2062.209   -744.94019    312432.09    15.368448 
15523000    1986.9965   -725.40391    303749.83    15.199648 
15523500    1999.9273    -719.6142       287711     15.34118 
15524000    1866.3454   -671.86023    296136.78     14.95039 
15524500    2075.2351   -628.07055    309126.12    14.682501 
15525000    2204.1962   -672.22107    299387.08    14.988347 
15525500    2018.8335   -697.78868    301571.28    15.151897 
15526000    1842.8419   -753.24011    297948.07    15.717051 
15526500    1837.3677   -737.39531     299796.7    15.602154 
15527000    1943.6618   -745.59043    302547.33    15.559258 
15527500    1916.3127   -741.94008    301499.77    15.573126 
15528000    2223.6183   -753.09691    302462.89    15.594823 
15528500    1965.6414   -756.44906    296099.86    15.728551 
15529000    1777.4162   -759.90509    298279.92    15.747118 
15529500    2118.1059   -713.79366    302443.28    15.155245 
15530000    1830.7585   -693.43457    292021.39    15.118014 
15530500    2147.5226   -701.54289    302815.65    15.112658 
15531000    1904.8561   -681.12023    297232.32    14.945481 
15531500    1940.6597   -668.26687    295387.49    14.924147 
15532000    2049.3979   -717.31092    300750.31    15.401968 
15532500    2017.2866   -685.30478    306604.64    15.106061 
15533000     1974.423   -747.35994       304400    15.699378 
15533500    2051.7063   -730.64908    299445.35    15.458077 
15534000    1975.5182   -707.37537    298377.67    15.255326 
15534500    2128.8106   -710.31247    303808.69     15.26084 
15535000    1984.0976   -649.12499    301063.06    14.888185 
15535500    2031.7063   -623.20612    299315.97    14.755154 
15536000     2012.468   -695.43656    299200.89      15.2124 
15536500    1996.6934   -737.11518    301997.92    15.716933 
15537000    1947.9738   -735.82123    303388.51    15.895335 
15537500    2025.8519     -727.468    289475.87    15.929073 
15538000    2160.9899   -736.96915    299551.18    15.946599 
15538500    1889.7363   -689.26843    299374.47    15.601216 
15539000     1798.795   -695.83056    303191.59    15.609944 
15539500    1757.9737   -706.92585    298292.88    15.603235 
15540000    1968.8454   -674.03284    300446.41    15.355864 
15540500    1945.5923   -636.79403    302301.27    15.220681 
15541000     1790.833   -645.41384    289839.39    15.364885 
15541500    1931.0398   -626.59436     304659.2    15.150355 
15542000    1884.3899   -701.94815    298793.48    15.657826 
15542500     1938.088   -655.42984    300258.69    15.310685 
15543000    1923.5364    -641.7638    298771.36    15.172622 
15543500    1821.4105   -621.60082       301660    15.052804 
15544000    2050.7244   -690.20069    300642.03    15.633142 
15544500     2065.196   -659.08384    299933.04    15.382297 
15545000    2045.1488   -634.40861    303575.79    15.061462 
15545500    2238.2514   -669.72239    301607.49     15.36326 
15546000    2114.0981   -631.96717    298668.92     15.01606 
15546500    1988.5893   -673.08945    300124.23    15.385058 
15547000    1939.3588   -655.74188    297577.09    15.241171 
15547500    2147.3287   -625.84994       302165    15.080835 
15548000     2038.535   -692.05383    301993.64    15.644386 
15548500    2118.0074   -703.87858    293493.87     15.58561 
15549000    1896.9189    -674.8969     299692.4    15.364777 
15549500    2078.8707   -640.52168    296103.97    15.006894 
15550000    1889.9773   -637.23788    300624.13    15.083094 
15550500    1972.2643   -676.25883    294411.76    15.422635 
15551000    1912.8707   -659.85445    302671.01    15.211503 
15551500    2055.9743   -678.59835    302187.66     15.27444 
15552000    2114.6738   -698.06867    298351.57    15.474876 
15552500    1859.5918   -648.16469    302955.26    15.044337 
15553000    1977.5071   -679.14508    299055.82    15.281525 
15553500    1971.9497   -661.53385    298364.61    15.164911 
15554000    2026.6353   -674.52223     300455.5    15.060647 
15554500    1835.6021    -653.5853    300992.83    14.905912 
15555000    2071.0353   -695.90522    303398.11    15.204606 
15555500    1935.7502   -648.59851    299796.81    14.802206 
15556000    2011.6932   -693.91319    291202.24     15.18687 
15556500    2015.2724   -657.81691    297490.73    14.892696 
15557000    1756.2697   -666.97788    293127.04    14.823524 
15557500    2125.3726   -667.36693     297642.8    14.863843 
15558000    1921.1979   -660.99982    297314.33    14.754091 
15558500    2058.2279   -662.80006    300271.09    14.751758 
15559000    1922.8246   -737.10538    297628.73    15.196578 
15559500      1826.87   -745.94764    297746.76    15.365331 
15560000    1982.4546    -731.4898    300367.21    15.267132 
15560500    1873.5575   -723.64744    301248.19    15.342161 
15561000    2221.2552   -738.67244     305837.5    15.231217 
15561500    1980.6987   -744.83625    302931.03    15.638187 
15562000    2056.8052   -739.45842    303152.53    15.411176 
15562500     2058.808   -646.41265    308032.14    14.681447 
15563000    2098.4591   -737.23518     300749.3    15.319202 
15563500    2083.8625   -732.97863    300759.87    15.191612 
15564000     2006.947    -662.3899    298695.34    14.693666 
15564500    2182.0424   -714.01456    308727.25    14.910953 
15565000    1940.6542   -683.95892    303432.39     14.74788 
15565500    1986.3045   -661.25118    298603.76    14.742022 
15566000    2022.6855    -653.9636     290034.1    14.623158 
15566500    1959.1233   -650.91879    298727.45    14.704489 
15567000    2141.6926   -664.69302    297825.59    14.746275 
15567500     1917.522   -674.23154    294313.98     14.80651 
15568000    1894.9891   -663.50493    296297.97    14.816947 
15568500    2007.1846   -758.73121    314807.76    15.565247 
15569000    1890.8454    -732.4143    284617.16    15.286623 
15569500     2021.973    -755.6095    292228.18    15.386256 
15570000     2024.726   -755.06822    282514.82    15.425461 
15570500     1916.752   -741.37308    292766.15    15.332449 
15571000    1819.0877   -732.15785    298369.94    15.222593 
15571500    1887.2039   -756.14394    298570.37    15.393731 
15572000    1928.7611   -755.94616    312517.67    15.638321 
15572500    1942.7426   -747.60601    297511.64    15.562342 
15573000    2212.9638    -735.2457    291490.14    15.406828 
15573500    1951.1311    -701.2459    303234.41    15.076598 
15574000    2064.6893   -686.73791    301118.24    15.111407 
15574500    2020.3226   -679.75493    297052.17    15.051334 
15575000    1959.0362   -706.16324    304342.09    15.274253 
15575500    1975.2901   -715.61371    300282.96    15.207845 
15576000    2043.3085   -620.93437    307523.34    14.362944 
15576500    1964.1237   -614.75543     300118.3    14.430794 
15577000    2091.5576   -628.77666    300098.02    14.525568 
15577500    1930.1161   -698.83973    298505.25    15.244138 
15578000    2058.4944   -679.40224    302594.55    15.149166 
15578500    2076.7984   -680.18596    298831.16    15.128406 
15579000    1963.7455    -665.3021    300135.26    15.145012 
15579500    1887.8601   -665.36265    301319.68    15.219978 
15580000    2176.6635   -700.00209    306938.96    15.363745 
15580500    2170.7515   -650.75042    300314.79    15.055255 
15581000    2143.1281   -679.41815    304089.16    15.195209 
15581500    1934.7696   -653.90864    296364.39    15.192589 
15582000    2038.9704   -690.24153    300887.92    15.295579 
15582500    2002.1252   -679.58573     296833.5    15.180753 
15583000    1896.4953   -590.98308    285004.36     14.58168 
15583500    1846.1152   -583.49841    289476.93    14.504197 
15584000    2015.3693   -589.54511    291969.09     14.37754 
15584500    2003.8666   -590.49965    290512.16    14.391728 
15585000    2091.2114   -603.50457    307305.68    14.426635 
15585500    2011.8415   -722.40858    300430.89    15.238848 
15586000     2160.838   -752.65119    301902.53    15.344227 
15586500    1935.7339   -743.60797    305072.95    15.261199 
15587000    2084.1421   -706.71933    307262.28    14.992442 
15587500    2063.5181   -709.98164    297564.86    15.127117 
15588000    2021.6792   -656.99644    303180.52    14.881889 
15588500    1870.5109    -659.1164    293856.08    14.745161 
15589000    2006.5609   -682.07546    294103.89    14.745221 
15589500    1933.8452    -678.6613    291037.67     14.76339 
15590000    1944.6751    -749.6362    302535.76    15.375697 
15590500    2043.8862    -746.9947    305442.37    15.349435 
15591000    2045.5994    -752.5654    290572.59    15.364474 
15591500    1959.1946   -732.83553    298847.27     15.32594 
15592000    2043.0733   -723.14421    292622.04    15.281673 
15592500    1843.6802   -685.76972    298074.38    15.056616 
15593000     1948.434   -676.18097    297955.86    15.079122 
15593500     2031.442   -622.18599    300482.46    14.690305 
15594000    1860.1099   -749.30161    283540.54    15.464581 
15594500     2044.256   -756.00598    288814.35    15.409405 
15595000     2028.041   -753.23059    298460.78    15.405207 
15595500    2166.8504   -722.91399    301510.99    15.246715 
15596000     2025.612   -720.21884    300958.98    15.300731 
15596500    2003.2032   -626.42509    306191.76      14.6724 
15597000    1989.4917   -579.26026    308235.03    14.378461 
15597500    1975.8994   -588.20688    297570.03    14.389401 
15598000    1791.7938   -625.82531    293681.95    14.540749 
15598500     1906.008   -578.21682    286509.98    14.291105 
15599000    1999.9988   -609.62838    295966.47    14.477407 
15599500    1985.5157   -639.58076       299204    14.638924 
15600000    1998.7714   -624.44671    305266.32    14.654341 
15600500    1980.6616   -659.01304    301856.58    14.920671 
15601000    1948.7959   -700.75308    303845.61    15.171037 
15601500     1995.258   -702.97265    301837.62    15.223366 
15602000     2221.915   -713.05917    302054.81     15.16656 
15602500     2049.002   -746.80448    293633.56    15.389693 
15603000    2093.1324   -614.20957    315140.69    14.343853 
15603500    2042.4331   -622.79998    298221.41    14.428926 
15604000    1945.9268   -638.44267    290703.42    14.423166 
15604500     1896.188   -630.32491    313529.63    14.350629 
15605000    1977.2337   -704.61013    308477.47     14.90277 
15605500    1933.0242   -676.35263    304408.95    14.630674 
15606000    2170.7546   -660.75301    304442.55    14.632963 
15606500    1971.9818   -634.57079    291743.79    14.511951 
15607000    2021.4717   -627.44546     303017.2    14.622123 
15607500    2140.2098   -668.04088    297564.29    14.965552 
15608000    1870.9933   -706.51204    305242.28    15.241884 
15608500    1909.9388    -710.7349    295322.15    15.091376 
15609000    2087.0625   -651.17368    300888.59    14.896867 
15609500    1993.4419   -669.25779    291543.73    14.750997 
15610000    1973.9635   -608.41347    301285.18    14.452944 
15610500    1965.4111    -639.6969    304987.76    14.754079 
15611000    1959.3778   -699.41914    302875.11    15.193878 
15611500    2017.4015   -719.04335    291015.99    15.306605 
15612000    1927.8838   -700.19613    302775.59    15.081568 
15612500    2026.6245   -715.99275    299607.58    15.060818 
15613000    1957.1097   -738.28349    298004.86    15.288486 
15613500    2010.1979   -752.03249    304502.66    15.215227 
15614000     2016.128   -758.89973    285585.47    15.386796 
15614500    1887.7093   -724.10404    295973.94     15.19031 
15615000    2033.6724    -714.5175    307275.03    14.937925 
15615500    1906.1411   -673.09141    300768.16    14.563548 
15616000    2004.3905   -648.24626    306397.33    14.669472 
15616500    1853.2438   -620.52592    303320.57    14.409447 
15617000    2018.4571    -672.3868    296290.35    14.761397 
15617500    2041.5912   -658.49175    300077.62    14.736283 
15618000    1923.1853   -676.00489    298606.88    14.664554 
15618500    1957.9963   -737.96412    298233.67    15.083569 
[...]
29848000    1960.1417   -717.69635    302651.08    15.195235 
29848500    1762.4342   -697.06594    293397.64    15.138103 
29849000    2011.0379   -735.03732     297280.8    15.411462 
29849500    1978.8418   -750.75404    299886.75    15.727222 
29850000      1954.31   -694.76199    300021.15    15.482836 
29850500    1890.1988   -613.59257    301616.77     14.83408 
29851000    2069.7875   -626.74643    295974.94    14.835044 
29851500    1903.6862   -628.42682    309406.94    14.914932 
29852000    1818.3406   -648.81553    297156.45      15.0647 
29852500    1866.0773     -674.228    299937.08    15.178634 
29853000    1969.9038   -726.68176    299421.32    15.532769 
29853500     1980.226   -752.87368    302486.16    15.771716 
29854000    1873.0171   -712.10876    300506.99    15.280874 
29854500    1971.1141   -706.45404    295692.74      15.2403 
29855000    2025.2894   -609.31707    312310.28    14.600013 
29855500     2015.739   -699.78797    301180.32    15.147833 
29856000    2117.4042   -638.36251    297277.66     14.73834 
29856500    1862.9044   -703.18466    295667.44    15.237748 
29857000    2038.3429   -713.53844     294305.6    15.163089 
29857500    1932.2853   -719.49074     299678.7    15.203346 
29858000    1871.0438   -693.12948     303556.4    15.065589 
29858500     1921.064   -662.56078    289076.79    14.837093 
29859000    1877.7374   -655.58593    298952.62    14.872876 
29859500    1950.9203   -644.72693    304092.77    14.758487 
29860000    2173.5096    -675.0816    283338.09    14.817458 
29860500    2068.2952   -707.62542     308612.1    14.995054 
29861000    2038.4721   -756.03518    291045.67    15.441684 
29861500    2031.6925   -735.94238     314906.2     15.25091 
29862000    1994.3471    -717.7521    286989.78    15.050341 
29862500    1798.6049   -669.97027       298812    14.743326 
29863000    1883.9769   -660.05308    298090.73    14.670915 
29863500    1976.4863   -679.17656    298083.59    14.759537 
29864000    2028.8264   -718.07065    307064.68    15.057057 
29864500    2004.1161   -651.17845    295064.14    14.595409 
29865000    1916.2209    -707.4772    290442.46    15.005485 
29865500    2080.1501   -709.12423    302311.95    15.005949 
29866000     2060.882   -725.91702    304634.37    15.117088 
29866500    2083.3664   -720.38563    298892.68    15.052431 
29867000    2226.2143   -680.74855    306637.67    14.771355 
29867500    1910.6405   -663.75201    306558.27    14.708461 
29868000    1927.7769   -654.67837    304527.32    14.667258 
29868500     2026.323   -652.22305    303651.97    14.678682 
29869000    2087.6624   -731.31599    279678.04    15.132159 
29869500    2021.2706   -657.79162       297290    14.639369 
29870000    2006.6736    -647.1194    285083.48    14.694724 
29870500    2039.7585   -728.78258    301234.11    15.193592 
29871000    1886.4105   -681.52205    314127.11    14.742801 
29871500    2024.7973   -724.25296    292659.99    15.096117 
29872000    1965.5357   -698.40534    303394.88     14.89382 
29872500    1846.1708   -735.88656    294502.42    15.268921 
29873000    2000.0329     -711.842    307039.64     15.00814 
29873500    2042.0216   -755.16295    295006.08    15.480564 
29874000    1902.3658   -743.39804    304781.62     15.39758 
29874500    1769.2996   -749.56147       287660    15.394915 
29875000    1991.8132   -671.72912    309322.99    14.754042 
29875500     2088.279   -713.39274    289774.96    15.082526 
29876000    1988.9425   -689.09831    290972.55     14.90889 
29876500    1931.4276   -704.06824    315146.98     14.90799 
29877000    2020.7803   -750.65345    303246.07    15.419856 
29877500    1913.3313   -746.71241    301238.59    15.328392 
29878000    2009.1565   -717.16015    307589.26    15.028201 
29878500    1746.9757   -747.92752     303745.1    15.295997 
29879000    2011.3877   -697.44562    302524.53    14.866642 
29879500    1699.8199   -725.92176    276230.41    15.077028 
29880000    2051.5627   -705.71792    305389.53    14.982102 
29880500    1786.8734   -639.78235    305143.98    14.560516 
29881000    2145.5356   -718.73876    294296.77    15.032475 
29881500    1867.7302    -704.8146    293968.21    15.010592 
29882000    2093.0593   -750.77335    285287.42    15.476393 
29882500    2087.3154   -748.97233    307008.32    15.386115 
29883000    2240.0669    -738.3863    305805.44    15.269945 
29883500    2094.9422   -669.87918    307970.32    14.735822 
29884000    1876.5575   -642.70101    307809.23    14.688301 
29884500    2169.1032   -725.72566     293012.2    15.172144 
29885000    1950.0394   -706.19554       300594    14.938623 
29885500    2047.1935   -711.02913    306913.67    15.019962 
29886000     2005.837   -722.15722    290813.53    15.046513 
29886500    2008.6316   -667.69327    291526.98    14.693973 
29887000    2104.8134   -647.25118    308001.05    14.657241 
29887500     1965.343   -707.14361    310376.68      14.9806 
29888000    2003.3927   -693.38069    304629.89    14.832085 
29888500    2078.5405   -697.68816    312525.72    14.864181 
29889000    1969.9193   -689.15466    290893.88    14.880966 
29889500    1857.6225   -695.86279    298048.24    14.981834 
29890000    1888.6461   -714.76844       286680    15.114458 
29890500     1884.265   -755.53495    300288.56    15.404504 
29891000    1956.4531   -695.15212    299411.46    14.836241 
29891500    1960.8377   -714.39699    293250.03    14.986041 
29892000       2083.6   -707.76201    291490.22    14.994129 
29892500    2021.2677   -644.12289     319231.6    14.573521 
29893000    2097.4108   -674.73929    304383.14    14.742373 
29893500    1901.2726    -648.4244    296923.83    14.677832 
29894000     2096.598   -681.38442    294712.57    14.862278 
29894500    2015.3865    -659.9369    290758.02     14.74919 
29895000    2072.5744   -737.79902    296647.81    15.268451 
29895500    2053.1153   -730.47088    295477.86    15.178229 
29896000    2034.9481   -748.27909    304854.94    15.430419 
29896500    1873.0738   -740.39637    305773.86    15.360938 
29897000    2171.4989   -752.01217    299551.93    15.511384 
29897500    2190.5479   -736.13073    297500.74    15.367819 
29898000    2073.7792   -747.66562    301307.94     15.62904 
29898500    2304.6927   -644.70624    301626.39    14.721151 
29899000     2082.185   -714.65597    295503.51    15.174074 
29899500    2018.8733   -718.21095     303009.5    15.020986 
29900000    1790.1039   -689.36192    298535.42    14.836043 
29900500    2060.4577   -743.07296    291925.62    15.360172 
29901000    2080.3529   -713.35499    297484.88    15.137694 
29901500    2045.3684   -695.85295    303049.94    15.097276 
29902000    1997.6952   -713.14574    290938.28    15.202624 
29902500    1976.8158   -724.05876    285468.19    15.185988 
29903000    1903.2476   -711.03384    297777.95    15.104527 
29903500    2083.6426   -704.42308    301933.83    15.071764 
29904000    2126.5634   -736.05994    302507.27     15.41562 
29904500    1814.8442   -758.92737    299044.49    15.643136 
29905000    1879.9076   -671.81303    301725.52    14.937881 
29905500    2123.8609   -624.01792    307750.43    14.683781 
29906000    2066.7401   -693.53131    306070.54    15.101604 
29906500    1854.7451   -684.75591    297839.44    15.062166 
29907000     2059.589   -616.83358    307485.45    14.619823 
29907500    2115.8412   -653.05983    297480.63    14.795073 
29908000    2053.1347   -648.66276    305873.12    14.716968 
29908500    2043.6548   -638.12625     311318.2    14.662598 
29909000    2085.1559   -651.14956    278086.36    14.711049 
29909500    2074.4222   -640.99067    309438.78    14.686689 
29910000    1822.3202     -664.616    283961.76    14.826884 
29910500    1912.4905   -660.28529    304055.53    14.725009 
29911000    1939.2874   -757.77891     298344.3    15.605165 
29911500    2096.4471   -753.62379    300790.89    15.557202 
29912000    2134.0072    -743.2463    304257.41    15.415339 
29912500    1965.2753   -735.46019    306587.67    15.338898 
29913000    1921.0439    -706.4626    295018.17    15.120475 
29913500    1983.6742   -708.11042    307332.67    14.976675 
29914000     1964.436   -736.20223    307645.23    15.200034 
29914500    1938.2601    -753.0058    298825.12    15.376471 
29915000    2021.9116   -739.02718    302582.78    15.313128 
29915500    2052.1636   -713.70953    302085.68    15.071789 
29916000    2140.7022   -728.21213    281726.24    15.098591 
29916500    2287.4139   -682.36156     295355.1    14.773928 
29917000      1990.79   -671.15977    303083.58    14.711783 
29917500    2018.4768   -647.22911    305033.57     14.65634 
29918000    2085.9154   -663.70175    312387.53    14.696691 
29918500    2070.4158   -701.39202    291595.33    14.868312 
29919000    2170.7951    -711.8299    307055.96     14.92348 
29919500    1974.4955   -711.24395    305452.69    14.993985 
29920000    1883.5148    -710.7011    294413.56     14.99241 
29920500    1783.1624   -715.72573    300229.63    14.977486 
29921000    1941.2479   -665.04241    294101.32    14.692545 
29921500    2030.4004   -683.34443    308220.77    14.760487 
29922000    1930.0157    -709.5986    301028.38    14.958688 
29922500    1976.2416   -746.40123    304563.88    15.245668 
29923000    2050.7528    -693.7857    309526.55    14.874634 
29923500    2019.2692   -711.76734    298980.55     15.05654 
29924000    2091.5871   -748.05825    300074.53    15.361733 
29924500    1993.8127     -737.294    302795.34    15.210294 
29925000    1998.5004     -724.788    301214.66    15.115496 
29925500    1935.0104      -725.84    301587.68    15.156439 
29926000    2014.6507     -652.873     317428.6    14.628567 
29926500    1908.3772   -730.34704    309528.13    15.130033 
29927000     2047.111   -682.72114    303615.85    14.794058 
29927500    1870.2451   -749.67247    296603.36    15.380113 
29928000    1926.0798   -657.04308    313219.74     14.63211 
29928500    2155.4045   -658.49638    296008.38    14.639359 
29929000    2065.0895   -699.28227    309936.08    15.008906 
29929500    1971.5327   -702.76256    304816.13    15.000026 
29930000    1953.7992   -733.25812    299367.61    15.259619 
29930500    2008.5751   -703.96888    308546.09    15.041566 
29931000    2007.4308   -662.06131    293866.79    14.790346 
29931500    1640.7124   -643.12896    308426.28    14.638702 
29932000    1909.9193   -674.71461    285464.92    14.783563 
29932500    2233.5606    -755.5367    302389.26    15.484078 
29933000    1938.8648   -748.17256    300098.09    15.553578 
29933500    2046.6359    -756.5297    296937.43    15.489551 
29934000    2153.1291   -735.24792    302101.71    15.374944 
29934500    2124.7466    -728.7846    307814.17    15.251687 
29935000    2088.9057   -657.46854    289315.94    14.693645 
29935500    1999.0365   -657.79268    307609.64     14.68539 
29936000    1926.0592   -644.27301    288270.47    14.624516 
29936500    2076.9827   -633.33244    313044.74    14.580378 
29937000    1912.2808   -709.26121    293445.34    15.110746 
29937500    2004.7561    -686.6108    305818.36     14.86639 
29938000    1930.6589   -748.75021    298316.42     15.41563 
29938500    1914.1927   -704.39065    289626.63    14.976849 
29939000    2270.6959   -719.21335    291434.55    15.034073 
29939500    2074.1947   -709.37874    297317.33    14.998971 
29940000    1940.0497   -726.13392    297487.82    15.120917 
29940500    2047.4274   -727.04995    298317.75    15.082513 
29941000    2077.2979   -724.53582    296135.18    15.046373 
29941500    1919.4633   -678.51214    301360.97    14.773294 
29942000    1941.8804   -758.00551    280956.45     15.50359 
29942500    2049.9591   -734.31414    312108.84    15.162509 
29943000    1963.8982   -718.55401    287457.39      15.0352 
29943500    1900.2087   -724.43873     302816.6    15.052624 
29944000    2001.1822    -713.4522     295579.1    15.024897 
29944500    1990.3469   -695.75958    317234.64    14.836588 
29945000    2057.2938     -750.815       294869    15.369894 
29945500    2132.4832   -718.98569     310982.7    15.015427 
29946000    1957.5304   -716.04158    290022.08    15.090942 
29946500    2235.7029    -710.0089    307673.07    15.033179 
29947000    1953.6937   -713.93901    292890.34     15.22753 
29947500    2085.5786   -651.28548    301730.97    14.753395 
29948000    1825.4799   -636.15839    306675.22    14.655158 
29948500    2045.4001   -642.10658    301520.15    14.693872 
29949000    2058.4323   -664.61711    298301.69    14.732785 
29949500    1896.5901    -654.8331    309625.08    14.688566 
29950000    1938.6327   -659.70355    286275.84    14.763311 
29950500    2108.1742   -643.37912     305736.2    14.681528 
29951000    1953.3911   -655.20062     311650.3    14.673695 
29951500    2084.0174   -656.30554    300956.35    14.755836 
29952000    1963.8662   -645.88809    308857.06    14.685285 
29952500    1941.3922   -673.11046    304443.72    14.827858 
29953000    1928.9381   -654.11132    296491.67    14.744654 
29953500    1996.9097    -638.5818    299409.51    14.746459 
29954000    2322.4228   -645.31818    304885.33    14.774243 
29954500    1968.6597    -623.4578    305130.28    14.667341 
29955000    1962.6617   -710.63499    276036.95    15.253647 
29955500    2249.5033   -679.23295    298739.53    15.032504 
29956000    2010.1568   -653.62406    297149.99    15.147898 
29956500    2072.6582   -625.42773    307749.81    15.050637 
29957000    2132.9061   -669.21088    306961.75    15.107803 
29957500    1957.4818   -685.52277    297069.99    15.301031 
29958000    1957.2897   -748.25952    301947.27    15.641419 
29958500     2068.083   -733.81706    299041.96    15.511012 
29959000    1992.6646   -718.67255     297493.8    15.398232 
29959500    2142.9562   -754.01676    285273.91    15.568676 
29960000    2005.4021   -763.64752    281296.48    15.792341 
29960500    2112.6405   -742.43564    296941.88     15.35125 
29961000    2037.6437   -748.54101    298819.51    15.515497 
29961500    2031.2935   -725.61815     278148.6    15.365936 
29962000    2018.0695    -728.0001     303099.3    15.303016 
29962500    2081.9166   -712.70243    303756.55    15.096286 
29963000    1947.3931   -719.46303    304105.33    15.208701 
29963500    1860.0423   -728.25925    303613.89     15.18708 
29964000    1881.2837   -762.77333    282518.59    15.539783 
29964500    2056.9493   -746.25308    300513.52    15.430517 
29965000    1942.3781   -764.55039    275008.51    15.501288 
29965500    1942.1527   -742.20301    308304.66    15.265725 
29966000    1917.9052   -748.67224    308921.91    15.519743 
29966500    2023.3395     -734.797    304582.19    15.551457 
29967000     2058.841   -713.77183    303222.63    15.326573 
29967500    1980.4468   -746.01368    276805.65    15.562318 
29968000    1964.7174   -742.55475     301374.2     15.46779 
29968500    1946.1008   -713.52554    293728.42    15.299054 
29969000    2132.4744   -637.00078    300497.42    14.879573 
29969500    1932.1655   -683.78931    286876.57    15.359989 
29970000    1782.8571    -697.7705    295891.32    15.431766 
29970500    1860.8553   -694.72186    297316.54    15.415132 
29971000     2120.562    -665.8552    297716.84      15.0352 
29971500    1963.1487   -666.67305    298375.51    15.191802 
29972000    2031.1962   -686.81661    297651.64    15.367021 
29972500    1973.2732   -603.36225    304311.48    14.628587 
29973000    2001.8401   -683.76014    302408.34    15.090395 
29973500    2096.7668   -734.07233    306957.64    15.511386 
29974000    1843.5628   -755.89366    300544.31    15.676133 
29974500    1919.0187   -758.13176    298448.89    15.693744 
29975000    2110.2885   -743.56487    303024.15    15.545325 
29975500    1904.9618   -736.99561    294744.39    15.603514 
29976000      2017.07   -696.50706    301084.96    15.314575 
29976500    1866.8502   -702.01519    298355.38    15.434174 
29977000    1873.2136   -645.10076    300988.18    14.912277 
29977500    1985.4383   -702.33837    304540.76    15.338813 
29978000    1953.2032   -632.59466    307169.75    14.874679 
29978500    2001.7713   -650.57253    302115.07    15.093057 
29979000    1931.3983   -695.23745     296664.2    15.400883 
29979500    2135.6503   -673.51449    298781.44    15.168258 
29980000    1916.1297   -639.33117     306237.1    14.924778 
29980500    2088.3348    -719.1359    308205.66    15.346549 
29981000    2081.9689   -718.28254    302058.02    15.438577 
29981500    2006.5525   -685.78401     300517.8    15.258497 
29982000    1768.7024   -687.72228     299407.6    15.292246 
29982500    2012.5814   -670.84333    299966.56       15.314 
29983000    2102.3585   -649.84213    301591.11    15.170966 
29983500    2025.8471   -641.44305    303764.35    15.060422 
29984000    1805.1441   -651.75673    296471.25    15.218617 
29984500    2298.1105   -704.12642    302956.74    15.713898 
29985000     2048.209   -635.86481    297001.91    15.198676 
29985500     2106.946   -680.39956    299648.33     15.41884 
29986000    2175.4864   -709.40414    302479.05    15.465897 
29986500    2226.3419   -634.24174    303741.36    15.023562 
29987000    2117.0065   -654.74162    294631.52    15.202185 
29987500    1960.8614   -684.89536    300460.96      15.4057 
29988000    1959.8793   -715.93947    295495.57    15.589703 
29988500    2008.8901   -655.19597    303785.45    15.136595 
29989000    1891.2606   -720.48814    294681.74    15.701437 
29989500    2012.1937   -714.25092    300865.84    15.679613 
29990000    2011.3453   -657.74414    300120.05     15.13892 
29990500     2054.529   -682.90993    296633.36    15.369836 
29991000    1985.0953   -668.26933    300862.13    15.186715 
29991500     2223.553   -628.18124    311734.28    14.959222 
29992000    1935.8456   -691.00371     284912.5    15.439659 
29992500    1939.2937   -697.27672    294070.88    15.376134 
29993000    2295.7616   -681.57248    308408.88    15.203487 
29993500    2055.9601   -689.99063    299296.51     15.29018 
29994000    2189.3785   -698.54124    300791.55    15.304761 
29994500    1932.7632   -667.33017    299906.77    15.228199 
29995000    1973.4466   -691.90145    305300.92    15.297209 
29995500    1850.3631    -743.7654    299162.48    15.657686 
29996000    2153.6888   -742.18023    303248.85     15.58469 
29996500    2029.0091   -747.25713    300481.74    15.603994 
29997000    1988.2863   -744.36102    295551.93    15.573148 
29997500     2009.487   -751.47533     280117.7    15.709043 
29998000    2066.3804   -703.15501    302594.53    15.338738 
29998500    1946.6885   -747.09211    299883.71    15.620485 
29999000    1921.8787   -708.43609    301164.69    15.162021 
29999500     2139.599   -750.74123    305285.67    15.678804 
30000000    2137.2525   -740.63974    296373.36    15.420453 
Loop time of 66921.2 on 6 procs for 15000500 steps with 250 atoms

Performance: 38.733 ns/day, 0.620 hours/ns, 224.152 timesteps/s
99.4% CPU use with 6 MPI tasks x no OpenMP threads

MPI task timing breakdown:
Section |  min time  |  avg time  |  max time  |%varavg| %total
---------------------------------------------------------------
Pair    | 3755.6     | 3902       | 3992       | 150.2 |  5.83
Neigh   | 107.79     | 108.91     | 111.18     |  10.8 |  0.16
Comm    | 897.7      | 991.06     | 1146.2     | 316.5 |  1.48
Output  | 336.63     | 336.66     | 336.74     |   0.2 |  0.50
Modify  | 61520      | 61527      | 61535      |   2.3 | 91.94
Other   |            | 55.11      |            |       |  0.08

Nlocal:    41.6667 ave 44 max 38 min
Histogram: 2 0 0 0 0 0 0 0 2 2
Nghost:    1094.33 ave 1109 max 1080 min
Histogram: 1 0 1 1 1 0 0 0 0 2
Neighs:    3350.83 ave 3579 max 3032 min
Histogram: 1 1 0 0 0 0 1 1 0 2

Total # of neighbors = 20105
Ave neighs/atom = 80.42
Neighbor list builds = 754148
Dangerous builds = 1

write_data	data.final
Total wall time: 18:35:27
