LAMMPS (8 Feb 2019)
Processor partition = 1
echo both

include		in.partitions
variable p_id world   0 1 2 3 4 5
include		in.temp
variable	temperature equal 2000.
variable	tempDamp equal 0.1 # approx 0.1 ps
include		in.pressure
variable	pressure equal 300000.
variable	pressureDamp equal 1.0
include 	in.seed
variable	seed world 74581 93734 128321 21934 495716 871038
units		metal
include		in.box
read_data	data.equil.${p_id}
read_data	data.equil.1
  orthogonal box = (-0.102744 -0.102744 -0.102744) to (15.1027 15.1027 15.1027)
  1 by 2 by 3 MPI processor grid
  reading atoms ...
  250 atoms
  reading velocities ...
  250 velocities

variable 	mass equal 26.981539
mass            1 ${mass}
mass            1 26.981539
include 	in.setup
variable	out_freq equal 500
variable	out_freq2 equal 500

neigh_modify    delay 10 every 1
include		in.al
### Argon Potential Parameters ###
pair_style 	eam/alloy
pair_coeff 	* * Al99.eam.alloy Al

timestep	0.002 # According to Frenkel and Smit is 0.001

thermo          ${out_freq}
thermo          500
thermo_style 	custom step temp pe press lx


restart 	${out_freq} Restart.lmp.${p_id} Restart2.lmp.${p_id}
restart 	500 Restart.lmp.${p_id} Restart2.lmp.${p_id}
restart 	500 Restart.lmp.1 Restart2.lmp.${p_id}
restart 	500 Restart.lmp.1 Restart2.lmp.1



# NPT

include		in.dump
dump            myDump all atom ${out_freq2} dump.al.${p_id}
dump            myDump all atom 500 dump.al.${p_id}
dump            myDump all atom 500 dump.al.1
dump            myDcdDump all dcd ${out_freq2} out.${p_id}.dcd
dump            myDcdDump all dcd 500 out.${p_id}.dcd
dump            myDcdDump all dcd 500 out.1.dcd
dump_modify	myDump append yes
dump_modify     myDcdDump append yes


timer 		timeout 23:50:00 every 1000
New timer settings: style=normal  mode=nosync  timeout=23:50:00

fix             1 all plumed plumedfile plumed.start.dat outfile plumed.out.${p_id}
fix             1 all plumed plumedfile plumed.start.dat outfile plumed.out.1
fix             2 all nph iso ${pressure} ${pressure} ${pressureDamp}
fix             2 all nph iso 300000 ${pressure} ${pressureDamp}
fix             2 all nph iso 300000 300000 ${pressureDamp}
fix             2 all nph iso 300000 300000 1
fix             3 all temp/csvr ${temperature} ${temperature} ${tempDamp} ${seed}
fix             3 all temp/csvr 2000 ${temperature} ${tempDamp} ${seed}
fix             3 all temp/csvr 2000 2000 ${tempDamp} ${seed}
fix             3 all temp/csvr 2000 2000 0.1 ${seed}
fix             3 all temp/csvr 2000 2000 0.1 93734
fix		4 all momentum 10000 linear 1 1 1 angular

run             15000000 upto # 30 ns
Neighbor list info ...
  update every 1 steps, delay 10 steps, check yes
  max neighbors/atom: 2000, page size: 100000
  master list distance cutoff = 8.28721
  ghost atom cutoff = 8.28721
  binsize = 4.1436, bins = 4 4 4
  1 neighbor lists, perpetual/occasional/extra = 1 0 0
  (1) pair eam/alloy, perpetual
      attributes: half, newton on
      pair build: half/bin/atomonly/newton
      stencil: half/bin/3d/newton
      bin: standard
Per MPI rank memory allocation (min/avg/max) = 4.003 | 4.003 | 4.004 Mbytes
Step Temp PotEng Press Lx 
       0    1782.0925   -696.55799     287606.5    15.205488 
     500    1948.0704   -692.29918    299378.82    15.179976 
    1000    1997.3204   -679.41654    313297.46    15.112075 
    1500    1981.4096   -684.64103    311677.75    15.098127 
    2000    2175.2043   -694.34123    300429.71    15.155047 
    2500    2056.4894   -700.52745    287106.26    15.218594 
    3000     2120.638   -703.81138     292080.1    15.139233 
    3500    2069.1319   -685.31157    317028.91    14.940716 
    4000    1923.6048   -701.34688    301191.16    14.927463 
    4500    1898.1437   -715.20938    298073.37    15.078187 
    5000    1940.3311   -704.53859     297641.5    15.057266 
    5500    2161.3307   -703.55007    300027.42    15.029415 
    6000    1955.1933    -694.4993    297347.17    15.040208 
    6500    1888.3906   -682.93509    299453.54    14.919547 
    7000    1961.4802   -669.27349    315622.82    14.681492 
    7500    2044.0492   -678.39548    300410.43    14.704418 
    8000    1917.3538   -680.24297    289000.76    14.750805 
    8500       1948.7   -679.44382    290930.76    14.747551 
    9000    1894.3719   -673.89618    295102.07    14.899598 
    9500    2189.4464    -707.6176     311637.8    15.131765 
   10000    1996.4131   -715.54561    299477.37    15.217999 
   10500    1877.5579   -714.85663    297505.77    15.254097 
   11000    1975.7979   -710.96667    303378.78     15.17484 
   11500    2015.2548   -719.22719    296903.49    15.271296 
   12000    1872.3318   -715.92173    299845.64    15.230943 
   12500    2002.7005   -708.35867    299540.06    15.238947 
   13000    2073.4881   -721.62074    297575.07    15.338733 
   13500    1826.2929   -680.63752    289112.26    15.041411 
   14000    1965.3507   -685.85987    290153.78    15.100973 
   14500     1866.908   -664.25357    305022.73    14.963205 
   15000     2085.391   -669.65826    300260.57    14.951654 
   15500    2024.3564   -675.25721    297460.89      14.9495 
   16000    1931.2191   -681.96471    295211.97    15.005578 
   16500    2070.8378   -665.84144    296147.81    14.957141 
   17000     1834.276   -659.97817    301391.21    14.921396 
   17500    1837.6713   -666.24693    289344.47    14.846292 
   18000    1910.6096    -657.8213    297844.49    14.784211 
   18500    2043.0443   -660.93292    290652.99    14.962345 
   19000    2135.4905   -655.89905     305811.4    14.854147 
   19500    2068.0449   -731.42582     276480.6    15.404769 
   20000    1820.9572   -720.20194    299858.48    15.339513 
   20500    2103.4964   -729.25639    298065.23    15.327269 
   21000    2036.3361   -716.98646    302201.41    15.327304 
   21500    2078.9525   -720.71564    307898.65    15.305883 
   22000    1936.2902   -731.24392    291407.64    15.333427 
   22500    2196.0026   -728.56892    298702.08     15.35732 
   23000    1962.2947   -723.98842    292435.14    15.384094 
   23500    1960.8706   -723.46282    304329.01    15.320968 
   24000    2076.3537    -730.3759    294870.58    15.354398 
   24500    2036.7855   -723.18648    300403.52    15.348184 
   25000    2058.9552   -723.26134    296550.09    15.364731 
   25500     2018.511   -726.20321    286536.56    15.366372 
   26000     1986.162   -726.95391    296648.17    15.394605 
   26500     1941.631    -724.6602    300217.81    15.427073 
   27000    1723.4886   -728.43266    288489.27    15.461364 
   27500     1922.454   -714.18674    310241.65    15.408928 
   28000    2188.8949   -719.19404    323265.97    15.389661 
   28500    1763.7294   -718.53623    314830.45    15.382738 
   29000     1929.149   -726.26577    304121.55    15.410513 
   29500    1929.0312   -728.98741    302233.71    15.427006 
   30000    1899.6603   -724.03326    301087.82    15.432515 
   30500    2057.5679   -723.99983    323053.68    15.362309 
   31000    2136.3944   -718.38834    306408.71    15.433485 
   31500     1932.943   -724.09986    293563.15     15.46107 
   32000    1857.8619   -723.66231    303376.41    15.444192 
   32500    1890.4773   -730.97578    284576.24    15.460627 
   33000    1925.2044   -724.44819    308393.95    15.376572 
   33500    1866.7851   -723.28291    291728.28    15.452162 
   34000    1946.2788   -726.24541    294937.07    15.452232 
   34500    2127.9841   -728.62009     304359.9    15.369856 
   35000     2115.854   -728.36844    301820.65    15.430765 
   35500    1976.2828   -721.95507    305210.61    15.417411 
   36000    1915.5721   -723.19115    296486.02     15.46871 
   36500    2009.7806   -718.69296    293584.72    15.478373 
   37000    2037.4535    -669.3743    298405.86    15.050427 
   37500    1966.8602   -646.14567    301005.34    14.918139 
   38000    2146.3013   -659.29815    306555.76    14.895308 
   38500    1889.8937   -649.39119    294610.83    14.910791 
   39000    1950.8499   -734.48822    283734.61    15.436315 
   39500    2042.0113   -732.05518    289894.61     15.41745 
   40000    2007.9972   -706.61914    306417.58    15.217255 
   40500    2053.5283   -727.69769    290711.09    15.412238 
   41000    1897.5662   -728.40156    300139.41     15.33379 
   41500    2142.2986   -721.35236    310288.21    15.321662 
   42000    1997.6454   -724.87826    303404.31     15.31622 
   42500    1894.0509   -728.67241    292516.51    15.394634 
   43000    2034.4258   -705.76178    302035.92    15.329505 
   43500    2096.6048   -718.53935    304705.95    15.308494 
   44000    2012.0408   -727.56222    305255.39    15.292585 
   44500    1939.3679   -723.22319    300096.79    15.375086 
   45000    2010.9712   -730.96181    302784.01    15.372295 
   45500    2059.5853   -731.04896    300419.26    15.371908 
   46000    1841.6016   -688.09067    298942.82    15.113639 
   46500    1810.2519   -679.20303    297986.75    15.074365 
   47000    2024.8698   -670.98108    298448.14    14.984768 
   47500    2107.1902   -715.42011    308196.32    15.313949 
   48000    1997.4561   -727.88491    301488.85     15.34438 
   48500    1883.3685   -715.22455    301009.65    15.276552 
   49000    2078.3468   -657.76119    292830.68    14.965926 
   49500    2317.6867   -679.16323    298446.41    15.044457 
   50000    1833.9466   -651.38166    293150.79    14.864534 
   50500    1999.2532    -636.6402    311439.18     14.74039 
   51000    2202.5554   -672.67294    303258.98    15.003054 
   51500    2178.0987   -681.85919    299318.98    15.125537 
   52000    1814.5242   -642.54176    298909.78    14.780491 
   52500    1949.0133   -693.59276    300140.03    15.102693 
   53000     1968.886   -666.70209    301551.61    14.938246 
   53500     1765.657   -717.95646    298699.29    15.287544 
   54000    2264.1978    -638.7946    313431.56    14.767215 
   54500    2100.7224   -701.88188    298081.58    15.248441 
   55000    2043.6461   -680.80901     306718.7    15.048558 
   55500    1855.6053   -692.01737    299943.17    15.090155 
   56000    1933.3125   -679.65758    303355.73    15.041208 
   56500    1762.6588   -676.43998    294817.83    15.009741 
   57000    2133.6242   -698.27601    296645.32    15.109603 
   57500    2218.9354   -715.78261    286353.55    15.216055 
   58000    2036.5419   -739.16997    300177.05    15.280473 
   58500    2056.0028   -724.25605    304201.97    15.168782 
   59000    2002.3079   -728.95604    302093.51    15.222486 
   59500    1954.5053   -745.69439    301932.32    15.263254 
   60000    2098.0552   -725.53762    294894.48    14.991084 
   60500    1901.5589   -728.25939    296168.48    14.992128 
   61000    2036.6015   -718.17405    299675.71    14.946623 
   61500    1884.0247   -715.58957    299211.01    14.940788 
   62000     1866.057   -721.09508    293202.17    14.958159 
   62500    2077.9919     -709.914    310493.98    14.890316 
   63000    1947.6564   -719.51422    301138.35    14.887117 
   63500    1865.2089   -718.94093     296101.4    14.936046 
   64000    2074.3709   -695.72892    311589.12      14.8403 
   64500     1883.535   -744.86743    303612.04    15.276766 
   65000    1955.4982   -743.91688    295814.83    15.300707 
   65500    1961.2706    -734.9124    311062.87    15.259208 
   66000    2076.9671   -738.98212    303036.74    15.381709 
   66500    2173.2748   -730.60884    302792.21    15.356442 
   67000     2093.357   -744.39332    284879.56    15.478474 
   67500    2129.3945   -639.26539    297926.56    14.724736 
   68000    1991.0757   -673.88987    304513.14    14.917195 
   68500    2101.0413   -692.80762    295261.17    15.118411 
   69000    2055.4255   -653.65536    302189.36    14.803245 
   69500    1992.9165   -683.31485    299409.63    15.107503 
   70000    2127.0032   -650.65414     294965.8     14.86433 
   70500    1865.3523   -630.90768    301161.36    14.746601 
   71000    2015.8938   -624.56533    323818.51    14.657992 
   71500    1922.1898   -666.11525    303299.18    14.953648 
   72000    1978.6495   -660.26753    295725.04    14.848156 
   72500    2033.3663    -702.4984    293665.35    15.192558 
   73000    1884.7563   -630.24112     303512.1    14.702957 
   73500    1912.8113   -628.28123    295252.29    14.838504 
   74000    2251.6991   -632.44957    302350.27    14.774812 
   74500    1938.3973   -654.23366    300439.47    14.970973 
   75000    1889.0794   -607.57819    338065.58    14.692027 
   75500    1863.9616   -636.93029    292675.04    14.841087 
   76000    2176.5866   -697.37101    296982.38      15.1653 
   76500    2243.0548   -677.67718    297678.79     15.19578 
   77000    2000.4711   -681.30669    304329.55    15.118554 
   77500    2011.7987   -614.60216     314836.2    14.726258 
   78000     2027.556   -629.09146    296026.92    14.848911 
   78500    2086.5251   -616.74551    296005.75    14.784631 
   79000     2087.918   -633.41055    297781.85    14.809045 
   79500    1978.1438   -628.71226    288611.89    14.846512 
   80000    2003.2627   -617.70468    301050.77    14.746172 
   80500    2140.4134   -613.04549     313979.7    14.734518 
   81000    1907.9135   -617.05385     304694.4    14.721535 
   81500    2170.1274   -621.15428    289065.06    14.791317 
   82000    1843.7236   -617.82055    309049.28    14.735369 
   82500    1998.9676   -625.93173    289897.92    14.847319 
   83000    1934.2357   -615.74357    312546.86    14.718289 
   83500    2070.6556    -669.1959    309392.41    15.073386 
   84000    2041.1914   -640.92362    293013.43    14.942682 
   84500    2202.7766   -680.78067    304526.03    15.122235 
   85000    1900.5671   -671.82247    300050.24    15.131412 
   85500    1985.5762   -675.96722    299983.42    15.154516 
   86000    2068.7526   -683.75899    303943.28    15.140792 
   86500    1889.8251   -740.34792     292194.6    15.520714 
   87000    2046.2458   -736.17536    299811.56    15.538774 
   87500     2067.504   -742.74077    293898.61    15.501917 
   88000    1889.9331   -741.08406     300730.2    15.431129 
   88500     2143.021   -728.89648    305661.02    15.441621 
   89000    1995.9056   -670.72562    306090.59    15.054173 
   89500    1825.2297   -674.25209    312851.37    15.076819 
   90000    1954.6992   -731.03977    308267.55    15.481441 
   90500    2047.7447   -726.78575    295527.61    15.539842 
   91000     2203.418   -733.59201     301983.1    15.509955 
   91500      2087.16   -721.97374    309370.24    15.454416 
   92000    2073.1596   -655.92171    301601.41    15.035171 
   92500    1994.5027   -682.56976    302793.42      15.2053 
   93000    2094.3297   -681.32772    299776.16    15.139366 
   93500    1944.7281   -667.37227    297030.39    15.073243 
   94000    2001.9625   -680.64291    297345.16    15.111513 
   94500     1971.445   -646.14025    291994.93    14.849065 
   95000     1984.636   -616.48784    310660.71    14.674358 
   95500    1976.4199   -625.15558    304215.53    14.594203 
   96000    2100.2862   -616.34353    330896.18    14.559073 
   96500    1847.4915   -630.08305    286339.69    14.646424 
   97000    2027.5511   -624.28321    292935.29    14.603808 
   97500    2133.2788   -659.44139    309130.73    14.748922 
   98000    1813.6137   -619.87387    316396.13    14.536298 
   98500    1901.7783   -632.10048    282586.59    14.685983 
   99000    1980.5168   -641.54054    292662.65    14.668411 
   99500    2083.6183   -616.81747    297485.18    14.538276 
  100000    1735.1716    -627.8388    289096.86    14.631814 
  100500    2005.6081   -626.13516    301195.96    14.557738 
  101000    1876.1728   -623.74844    284615.93    14.595146 
  101500    1877.9779   -625.94974    300100.64    14.569929 
  102000     2052.371   -624.70264    312014.91     14.57247 
  102500    2194.3259   -615.89953    321298.08    14.646268 
  103000    1973.9291   -746.19241    288871.33    15.510304 
  103500    2042.7707   -694.23412    291514.73    15.048177 
  104000    2038.3908   -688.33802    297575.97    14.903842 
  104500    1966.6281   -697.68245    290420.87    14.890341 
  105000    2042.3194   -702.47298    287262.53    14.925218 
  105500    2009.6453   -688.46075    316573.15    14.827907 
  106000    2035.9145   -696.80313    296725.61    14.943877 
  106500     1980.861   -689.38829    300761.53    14.880697 
  107000    1912.5676   -689.23426    302552.49    14.899566 
  107500    1820.4223   -697.16141    297026.29    14.907905 
  108000    1937.7603   -690.91741    299361.92    14.938907 
  108500    1902.8498   -696.00808    301009.82    14.873698 
  109000    2127.3666     -676.248    315535.64    14.819923 
  109500    1941.3974   -694.00932    306071.61     14.84619 
  110000    1830.5094   -678.84723     313276.4    14.816804 
  110500    2079.1308   -679.21568    318757.38    14.804971 
  111000    1958.3511    -704.0123    289319.98    14.964227 
  111500    2042.0254   -692.91338    279276.91    14.888122 
  112000    1803.4996   -696.61183     294788.3    14.900712 
  112500    2216.3807   -692.05054    304814.14    14.918795 
  113000    1913.3282   -689.71882     292700.9    14.988358 
  113500    1972.2259   -685.18676    300124.84    15.030447 
  114000    1947.3079   -650.39687    306304.25    14.905288 
  114500    1750.1101   -702.09569    289841.91    15.239282 
  115000    1982.5421   -663.22147    303855.43    14.963707 
  115500    1914.8407   -683.69305    296852.68    15.108384 
  116000    2017.3735   -736.80497    288584.57    15.603537 
  116500    2019.0441   -702.60352    294386.61    15.245826 
  117000    1941.9267   -676.38804    299490.84    15.125821 
  117500    1956.1916   -693.52206    298120.09    15.042666 
  118000    1929.8528   -682.06528    297978.22    14.961043 
  118500    1951.9218    -673.1779    308099.65     14.85775 
  119000    1993.3133   -690.05638    304046.86    14.849443 
  119500    1998.2547   -694.23242    308399.15    14.924445 
  120000    1934.7053    -698.3872    294671.88    14.952191 
  120500    2242.8752    -699.4417    292744.93    15.006333 
  121000    1967.4358   -678.50457    313926.71    14.841011 
  121500    1947.9373   -688.66303    298161.75    14.906717 
  122000    1938.9197   -693.76111    293120.87    14.952557 
  122500    1881.5455   -745.62008    291130.53    15.507767 
  123000    1933.0158   -738.26503    299071.17    15.469974 
  123500    2012.1655   -680.19922    308009.02    14.896513 
  124000    1969.6905   -702.20012    295200.73    15.088352 
  124500    1991.7057    -676.2875    306972.28    15.018819 
  125000    1932.9166   -687.36022    296459.26    15.035174 
  125500    1933.3257   -688.72167    294526.67    14.917212 
  126000    1866.2502   -696.96099    294770.85    14.934349 
  126500    2056.2281   -681.93426    309018.59    14.879867 
  127000    1908.6786   -703.40726    293156.61    14.963981 
  127500    1777.6807   -687.78888    299219.74    14.951081 
  128000    2030.1563   -693.45351       297919    14.954662 
  128500    2052.1851   -688.51596    303894.16    14.916449 
  129000    1921.5101   -685.18291    303703.97    14.854187 
  129500    1866.8016   -681.61893    298494.06    14.929938 
  130000    2006.0506   -680.00017    306425.55    14.931841 
  130500    1947.4379   -684.27231     294795.1    15.018311 
  131000    2029.3757   -676.20392    306291.27    15.057687 
  131500    2033.9651   -680.36094    305932.53     14.93415 
  132000    1878.1388   -701.57227    292330.27    15.104279 
  132500    1986.5522   -677.52154    298382.27    14.907825 
  133000    2049.0187   -692.31233    293306.63    14.991435 
  133500    1825.6069   -684.39791    298120.57    15.002208 
  134000    2085.0208   -719.26371    301416.25    15.232865 
  134500    2061.9639   -638.08379    299434.13    14.727726 
  135000    1976.3228   -669.74352    305751.73    14.942102 
  135500    1898.2824   -681.34678    302770.16    14.965845 
  136000    1997.3103   -718.62155     297667.6    15.183496 
  136500    2102.9384   -681.69399    297082.32    15.039009 
  137000    2003.2146   -688.30064    294158.43    15.072477 
  137500    2126.3131   -694.16691    292578.89    15.136007 
  138000     1956.911   -681.25826    300651.65    15.049467 
  138500    1961.2955   -656.32696    305496.88    14.893006 
  139000    1929.7949   -696.41086    294693.31     15.08179 
  139500    1946.7777    -682.2529    304496.43    15.007339 
  140000    2222.6784   -683.29506    301939.03    15.015433 
  140500    2024.3891   -666.80532    309473.95    14.894112 
  141000    2020.2032   -661.00284    302157.09    14.871689 
  141500    2060.3307   -614.77757    315018.14    14.608888 
  142000    2136.9049   -623.80815    291728.01    14.681197 
  142500    1969.3879   -623.43264    292335.46    14.675104 
  143000    1944.4328   -628.86501    289596.46    14.749703 
  143500    2106.3395   -632.98345    292004.76    14.664841 
  144000    1900.1246   -612.75622    288768.53    14.437023 
  144500    1912.4181   -606.50274    316618.57    14.408964 
  145000    2299.7413    -609.1011    318530.98    14.438653 
  145500    1787.0086   -614.76946    299970.16    14.520361 
  146000     2051.978   -603.65829    335511.16    14.446305 
  146500    1970.9597   -611.78137    290952.83    14.426641 
  147000    1848.2445   -635.38272     286334.9    14.615707 
  147500    1999.7437   -609.42615    316894.06    14.469654 
  148000     2092.737   -623.18268    298469.19    14.536076 
  148500    1952.3035   -612.72631    309986.97     14.40969 
  149000    1936.0397   -606.04361    321486.25    14.393778 
  149500    2075.8051   -616.30796    288306.66    14.380153 
  150000    2074.4717    -601.2999    346377.79    14.403552 
  150500    1971.8871   -605.96028    330762.18    14.374398 
  151000    2090.0681   -621.49014    284500.89      14.3695 
  151500    2065.7557   -613.17324    285459.15     14.42888 
  152000    1923.2054   -609.20866    325832.18    14.381476 
  152500    1840.8402    -614.7562    276204.08    14.481744 
  153000    2091.1847   -606.65264    329484.74     14.39041 
  153500    1942.4731   -628.46062    281068.21     14.60212 
  154000    2149.9444   -610.87429    318420.42    14.376906 
  154500    1828.3673   -617.74498    286057.24    14.483235 
  155000    1997.0388   -616.02002    279005.13    14.475587 
  155500     2039.851    -626.7359    258955.17    14.437437 
  156000    2112.8081   -612.06247    293388.34    14.444442 
  156500    1928.5296   -615.49799    297264.28    14.635388 
  157000    2041.6552   -626.58533     302044.6    14.620357 
  157500    1964.5096   -610.97263    314882.86    14.621747 
  158000    1874.5117   -617.58086    309010.15    14.596635 
  158500    1952.9077   -627.34206    290263.41    14.670131 
  159000    1968.2221   -688.14643    301579.76    15.116555 
  159500    2052.1606    -729.0075    308869.12    15.316867 
  160000     1949.004   -742.92542    295755.42    15.459678 
  160500    2044.9612   -743.47435    293379.92    15.510313 
  161000    2136.0215   -749.43866    286748.98    15.382609 
  161500    1952.3163   -744.29601    314169.42    15.326769 
  162000    2207.1995   -739.92783     302081.6    15.303135 
  162500    2026.9474   -704.27622    297496.68    15.100863 
  163000    2115.6776   -721.98221    303060.43    15.186488 
  163500     2112.726   -747.10544    305309.36    15.388988 
  164000    1995.5302    -745.2668    290851.82    15.371984 
  164500    1981.3216   -744.42683    295775.92    15.407395 
  165000    2019.4696   -752.82753    299568.89    15.450027 
  165500    1946.5677   -748.60226     307055.2    15.359887 
  166000    1937.4335   -742.93464    304130.09    15.351859 
  166500    2006.8609   -740.71097    306302.91    15.312577 
  167000    2066.3384   -737.21596    304924.66    15.309482 
  167500    1983.8384   -739.00781    309825.44    15.379252 
  168000    1853.5988   -747.02543     290196.7    15.450737 
  168500    1890.6153   -734.25805    302312.44    15.240623 
  169000    1835.7192    -745.2874    293059.78    15.401002 
  169500     2170.807    -745.9975    311173.81    15.347941 
  170000    2183.2281   -745.52365    291922.42    15.389944 
  170500     2054.251   -753.26518    264894.72    15.444761 
  171000    1963.4615   -739.30943    300238.73    15.433079 
  171500    1968.6655   -735.98434    304882.91    15.381724 
  172000    2113.2832   -708.08784    306620.77    15.196993 
  172500    2291.8249    -692.7255    302051.35    15.049558 
  173000    1902.0037   -676.12246    301402.39    14.890533 
  173500    2018.9739   -674.50445    305380.91    14.826948 
  174000    2086.8802   -702.76347    298722.78     14.98397 
  174500    2029.4429   -735.00887    304182.76    15.225147 
  175000    1867.6624   -733.73311    301025.38    15.242568 
  175500    2034.5076   -723.83793       304201    15.180167 
  176000     2066.037   -684.53978    306091.21    14.807863 
  176500    1945.7714   -693.59944    291379.77    14.897654 
  177000    2105.5296   -703.18285    292886.02    14.984467 
  177500    2260.0968   -687.00743    309653.77    14.701959 
  178000    1857.9121   -706.41496    277692.26    14.909972 
  178500     2146.875   -685.05235    299378.55    14.670751 
  179000     2045.423    -685.9866    318459.05    14.648909 
  179500    2043.8977   -688.84278    303028.31    14.609332 
  180000    2121.0629   -684.71359    302839.02    14.640262 
  180500     2010.504   -689.77294    306237.93     14.61077 
  181000    1943.6546    -686.0183    299322.26    14.661105 
  181500    2006.5841   -675.54948    318029.07    14.650422 
  182000    2206.1123   -685.20869    310690.28    14.717372 
  182500    1824.4691   -690.00997    301222.62    14.818274 
  183000    2235.7532   -692.18398    291330.64    14.765079 
  183500    1958.2505   -719.46081    296219.38    15.104935 
  184000    1961.9588   -689.09756    298158.22      14.8823 
  184500    2217.4539   -698.42373    286776.35    14.824021 
  185000    1879.7227   -723.95381    296929.23    15.266979 
  185500    2136.4854   -726.18267    300340.71    15.350325 
  186000    1982.6747   -666.19724    305237.12    14.869547 
  186500      1953.49   -672.96643    303305.22    14.946473 
  187000    1938.5273   -751.87465    271371.49    15.595951 
  187500    2041.9001   -666.55656    302381.23    14.883051 
  188000    2052.8438   -638.19503    286976.09    14.675688 
  188500    1985.2765   -626.30579    290774.62    14.651409 
  189000     2156.269   -671.41918       300268     14.83683 
  189500    2298.7466   -672.78877    302957.93    14.909458 
  190000    2008.2423   -699.44796    303514.37    15.037265 
  190500    1957.4924   -740.77723       303484    15.503571 
  191000    2008.5268   -673.23401    301438.04    14.936467 
  191500    1915.0285   -686.81982    303166.38    14.995702 
  192000    1957.5092   -740.06954    288323.78    15.402905 
  192500    1984.2582   -707.55631    303816.65    15.147342 
  193000    2043.3481   -623.24177    294554.21    14.664988 
  193500    2167.4366   -624.22092    290590.24    14.717612 
  194000    2047.8838   -619.60891    300630.86    14.718529 
  194500    1838.3279   -627.34365    283742.94    14.777193 
  195000    2006.7784    -705.9852    301200.68    15.312572 
  195500    2087.3836   -626.69114    292740.11    14.784747 
  196000    2187.9777   -626.98403    306002.14     14.93139 
  196500    2120.8482   -658.55033    308287.66    15.115281 
  197000    1948.4213   -685.11749    297206.78    15.400386 
  197500    2123.3408   -686.99063    303239.35    15.330839 
  198000    1990.3649   -673.89928    303770.66    15.198759 
  198500    1967.2463   -717.02884    295344.54    15.458354 
  199000    2149.4247   -608.19965    301022.85    14.725982 
  199500    1954.3144    -652.4398    301713.74    15.055268 
  200000    1841.5925   -674.09436    307000.74    15.269498 
  200500    1952.3239   -680.08326    306721.11    15.284647 
  201000     1877.532   -689.46015    291682.46    15.477341 
  201500    1954.2656   -691.10112    289205.24    15.486791 
  202000     2049.898     -676.896    309282.58     15.36191 
  202500    1951.2385   -690.10379    292130.81    15.454451 
  203000    1881.0558   -702.17125    296049.75    15.430424 
  203500    1919.2615    -675.7619    306906.36    15.348217 
  204000    1900.8294   -680.34393    306155.87    15.411232 
  204500    2136.1946   -677.81517    306621.13     15.40213 
  205000    2013.8073   -680.71664    297370.66    15.428625 
  205500    2029.0113    -673.4415    306689.01    15.258898 
  206000    1994.6562   -686.24963    300443.69    15.395526 
  206500    1944.1576   -671.32711     301307.3    15.274475 
  207000    2048.9025   -688.02357    295617.29    15.463317 
  207500    1869.6875   -669.24292     309063.6    15.361129 
  208000    2178.0183   -688.30261    304828.88    15.339655 
  208500    2010.0334   -685.85611     296907.5    15.412792 
  209000    1948.8655   -677.74429    302131.15     15.34006 
  209500     1989.186   -692.62601    297334.01    15.422632 
  210000    1825.9203   -692.43924    299803.01    15.346516 
  210500    1953.4615    -688.4868    294848.72    15.425718 
  211000    2106.4976   -610.99714    300565.36    14.759698 
  211500    1881.1921   -673.46534    299035.76    15.023213 
  212000    1957.2459   -714.12116    298669.78     15.41586 
  212500    2005.9621   -744.38838    301445.01    15.641328 
  213000    1951.5993   -745.52754    302565.45     15.57487 
  213500    1997.2496   -751.25938    291888.05    15.659416 
  214000    2101.8105   -739.25102    301193.31    15.618511 
  214500    1902.6979   -742.91945    304302.96    15.607468 
  215000    1913.0138   -735.17715    304180.42    15.502722 
  215500    1991.5975   -744.38079    311319.15    15.590547 
  216000    1987.5989   -747.15409    299726.88    15.649261 
  216500    1833.4464   -748.51897    288092.64      15.5962 
  217000    1839.7383    -746.8918     297372.1    15.604531 
  217500    1955.4739    -746.5096    295453.52    15.663309 
  218000    2071.8175   -748.68708    275966.27    15.726173 
  218500     1898.889   -665.56741    294849.41    15.094029 
  219000    2074.7382   -609.71522    302862.44    14.678198 
  219500    1981.4531   -603.17286    313232.38    14.646287 
  220000    2068.6013   -637.54266     296403.7    14.822043 
  220500    2123.6671   -618.22544    297367.33    14.764234 
  221000    2024.1294   -607.88543    300522.78    14.698231 
  221500    2020.3459   -607.42142    298241.79    14.671202 
  222000    2117.9913   -618.25359    296280.36    14.848638 
  222500    2140.2157    -592.7475     303781.3    14.655531 
  223000    2007.2345   -592.11461       294627    14.677832 
  223500    2109.0402    -587.5177    300490.73    14.669855 
  224000    1827.8956   -604.40301    286630.44    14.702134 
  224500    2029.5033   -653.36742    300849.43    14.998547 
  225000    1899.8824   -695.11353    297492.52    15.442477 
  225500    1772.3607   -680.14414     296584.5    15.449958 
  226000    2081.2161   -676.72043    299203.76     15.22183 
  226500    2022.5915   -614.86796    298809.01    14.704159 
  227000    1916.8038   -605.86071    302939.03    14.638691 
  227500    2012.7515   -622.49351     295894.2    14.716854 
  228000    1995.3627   -606.88434    309468.79    14.567885 
  228500    2036.6307   -665.19574    300435.81    15.068508 
  229000    2107.5871   -604.42673    310164.03     14.59892 
  229500    1979.2563   -639.51158    298644.39    14.835835 
  230000    1901.6186   -600.04253    318280.03    14.595923 
  230500    1932.2752   -629.76515    296814.02    14.691621 
  231000    1915.4286   -625.50196    293814.25    14.702405 
  231500    1942.6318   -629.58994    301593.07    14.665135 
  232000    1982.6754   -612.02197    298473.92     14.66156 
  232500    2052.4841   -751.33152    299319.29    15.610041 
  233000    1958.9758   -752.99808    281642.94    15.658169 
  233500    2064.7686   -721.37237    304205.63    15.296426 
  234000    1943.3801   -707.25108    304048.86    15.088857 
  234500    2044.6462   -737.71795    303349.57    15.384954 
  235000    1935.7476    -649.1082    298318.96    14.749395 
  235500    1937.2231   -624.27255     297333.6    14.621589 
  236000    2225.8951   -687.37654    296146.48     15.02098 
  236500    2186.6359   -650.21733    307247.99    14.738659 
  237000    1988.5567   -745.82796     306734.5    15.486538 
  237500    2056.1288   -743.47412    299992.73    15.591986 
  238000    2147.0971    -741.2534    304757.98    15.699189 
  238500    2020.6093   -747.46754    311651.69     15.64158 
  239000    1970.7066   -747.29183    306465.98    15.675985 
  239500    1918.0313   -744.83271    300451.23    15.693034 
  240000    2002.9729    -742.4267    301830.42    15.669563 
  240500    1812.9692   -743.23606    304553.52    15.686345 
  241000    1948.0151   -748.10866    306392.85    15.594142 
  241500     2174.597   -749.56521    293392.19    15.653968 
  242000    2045.9216   -745.68328    307452.03    15.662939 
  242500    2005.1899   -726.94973    295950.92    15.477222 
  243000    2084.5053     -722.481    304043.33    15.257139 
  243500     1882.791   -751.68979     290748.8    15.623109 
  244000     1872.967   -736.99439    307308.22    15.593607 
  244500     2091.663   -741.48636    313971.64    15.650318 
  245000    1926.4725   -746.08818    299684.34    15.696169 
  245500    2028.5107   -750.81287    309102.35    15.638862 
  246000    2151.4745   -749.26965    285887.34    15.724699 
  246500    2148.0437   -739.23521    304755.76    15.669559 
  247000     2204.551   -743.31389    284249.84    15.652829 
  247500    2050.8797   -747.77925    309289.61    15.622175 
  248000    1874.5517   -747.54745    292021.86    15.721752 
  248500    1799.4591   -742.34299    308394.31    15.530636 
  249000    2042.2148   -750.40964    292417.37    15.691554 
  249500    2140.3517   -745.17188    292593.84    15.702606 
  250000    1992.0308   -747.56684    306361.01    15.639135 
  250500    1897.5239   -749.76273    274954.17    15.762211 
  251000    1988.6163   -745.82427    312181.23    15.651249 
  251500    2141.1117   -745.53271    298592.73    15.680976 
  252000    2009.8174   -746.03719    303589.89    15.683961 
  252500    2193.8731   -747.86031    303648.37    15.699636 
  253000    2011.2669   -723.66773    300293.41    15.501115 
  253500    2040.1503   -754.14132    243114.14    15.762776 
  254000    2059.6146   -723.59374    297079.88     15.38221 
  254500    1878.7674   -745.83066    296059.68    15.624367 
  255000    1980.1533   -713.32529    298192.57    15.245744 
  255500    1845.4457   -688.40213    293694.81    15.134481 
  256000     1840.037   -723.04507    299816.61    15.275905 
  256500    2000.6869   -720.05537    295203.58    15.204537 
  257000    1998.6096   -706.98349    304220.09    15.024542 
  257500    2040.2405   -715.56634    302454.57    15.163286 
  258000     1968.732    -677.7493    298793.56    14.979326 
  258500    2062.7994   -680.87907    295613.19    15.033944 
  259000     2070.654   -663.13154    297571.36    14.872465 
  259500    2113.8695    -660.0067    298212.96    14.896847 
  260000    1845.4085   -679.03435    297073.48     15.03339 
  260500    2000.9832   -667.38253    305626.82    14.912431 
  261000    2026.4747   -670.11244    293457.54    14.954498 
  261500    2116.2519   -664.77498    293897.34    14.824731 
  262000    2111.9717   -611.29596    297159.81    14.613276 
  262500    1919.8969    -685.0352    297309.64    14.979662 
  263000    1987.7003   -716.29858    296658.01    15.266192 
  263500    1953.4734   -716.06553    305527.26     15.26852 
  264000    1698.2878   -695.22467    298380.21    15.339083 
  264500    1888.1777   -641.19239     305209.4    14.902145 
  265000    1939.5032   -641.08142    307676.18    14.999894 
  265500    1924.6336   -654.06713    292615.62    15.121241 
  266000    2024.3935   -720.00477    297162.23    15.590978 
  266500    2074.4868   -657.76471    299248.06    15.028085 
  267000    1975.8342   -650.48745    295338.83    15.111952 
  267500    2068.3063   -637.80731    300508.42    15.065891 
  268000    2101.0524   -636.22384    304591.93    15.103408 
  268500    2125.5368   -633.06832    315445.47    14.978408 
  269000    1914.4186   -634.97085    303877.11    15.067511 
  269500    1811.4346   -635.97613    297893.42    15.192712 
  270000    2007.9602   -642.04252    294564.11    15.086554 
  270500    1953.8309   -633.09472    297755.88    15.109478 
  271000    2080.3275   -633.88556    299802.67    15.165529 
  271500    2179.8478   -650.98185    291659.29    15.247699 
  272000    2020.6488   -632.90773    308115.44    15.033169 
  272500     2026.675    -639.1183    305264.93    15.043416 
  273000    1856.2496   -641.59144    287488.97    15.138196 
  273500    1966.9812   -638.45667    299727.01    15.007616 
  274000    1999.6426    -651.2897    292089.21    15.219856 
  274500    2155.3783   -622.81037    317578.99    14.980498 
  275000    2061.0512   -650.52009    291526.61    15.174165 
  275500    2025.1342   -642.67382    306071.44    15.050354 
  276000    2100.4404   -646.62472    309215.71    14.958769 
  276500    1971.5375   -667.38497    289757.72    15.104921 
  277000     2019.697   -645.64005    300926.91    14.973224 
  277500    2130.0535   -651.13291    300997.46    15.007852 
  278000    2020.6246   -648.01667    306479.27    15.097238 
  278500    1904.8404   -693.32306    302121.97    15.384499 
  279000    1969.2226   -694.62693     296893.2    15.465741 
  279500    2020.2217   -738.48793    305722.79    15.678525 
  280000    1780.2139   -745.82857    288653.84    15.743576 
  280500    1949.7368   -750.85144    284477.11    15.727903 
  281000     2106.079   -748.20771    301987.67    15.610659 
  281500    2149.5739   -742.27129    308612.56    15.676248 
  282000    1877.3182   -754.52307    291204.02    15.697495 
  282500    1985.1801   -748.20231    310981.63     15.61504 
  283000    2026.7054   -750.46129    302965.05    15.656149 
  283500    2006.9954     -749.697    308647.17     15.57799 
  284000    1883.7943   -756.59107    279588.99    15.541973 
  284500     1945.327   -744.42059    293655.27    15.437828 
  285000    1961.7567   -713.39708     304163.7    15.159721 
  285500    2192.1489    -728.8698    274469.21    15.270566 
  286000    2085.0911   -721.10981    284813.67     15.25522 
  286500    2032.1792   -704.15739    295812.19    15.024534 
  287000    2072.1316   -730.07005     281532.3    15.221435 
  287500    1813.7882   -730.09683    291900.95    15.163345 
  288000    2047.3262   -723.22298    300175.16     15.14911 
  288500    2056.4344   -720.03504     308251.3    15.111077 
  289000    2115.8103   -719.85009     311433.5     15.03755 
  289500    2057.5514   -735.16147    289539.68    15.228057 
  290000    1878.4096   -725.13829    304718.76    15.176275 
  290500    1901.1519   -720.44673    297537.53     15.19658 
  291000    1943.2988   -728.87352    280694.29    15.165703 
  291500    2051.6246   -709.07612     311456.3    15.066705 
  292000    2219.4167   -694.74002    309295.44    14.944371 
  292500    2142.2966   -674.97424     307588.4    14.876864 
  293000    2024.8534     -688.149    306185.07    14.953127 
  293500    2074.0433   -662.77113    305971.96    14.835226 
  294000    2035.0829   -685.16259    293445.13    14.941035 
  294500    1965.8803   -716.62636    305541.91     15.09159 
  295000    2037.6801   -734.24516    290123.26     15.22235 
  295500    1914.4512   -726.58838    300440.06    15.182143 
  296000    2024.2132   -721.58072    307003.23    15.230818 
  296500    1977.0229   -716.00044    299794.51     15.15247 
  297000    1997.4895   -702.21316     299086.2    14.994127 
  297500    1942.7237   -738.98981    293962.77     15.38316 
  298000    2050.7633    -647.5489    308627.95    14.812234 
  298500    1946.3063   -647.92363    309138.65    14.778806 
  299000    2170.1818   -677.46596    303189.16    14.886045 
  299500    2189.8322   -701.42941     288284.9    15.018185 
  300000    2010.8334   -674.88734    315753.17    14.813903 
  300500    2094.0592   -712.52258    309232.69    15.067436 
  301000    1887.7809   -683.52007    297234.95    14.845197 
  301500    2145.1739   -722.89261    311095.72    15.063112 
  302000    2085.6123   -719.52221    298882.19    15.209023 
  302500    2074.4877    -732.3413     295265.3    15.267419 
  303000    2007.1393   -724.39756    307554.68    15.120503 
  303500    1960.9312    -694.6877    305083.81    14.950378 
  304000    1965.5075   -721.34031    298239.08    15.108972 
  304500    1979.2198   -720.46299    306441.54     15.12091 
  305000    1936.8645   -721.59541    302228.54     15.16503 
  305500    1869.2493   -671.96058    307885.89    14.843921 
  306000    2091.1347   -684.05356    308059.94    14.912582 
  306500    1898.2539   -663.13885    307423.48    14.788112 
  307000    2276.1819   -743.23836    293831.55    15.311466 
  307500    2115.8885   -700.04138    283044.05    14.975562 
  308000    1973.1105   -720.66512    297232.36    15.134926 
  308500    2108.0783   -719.29624    313699.82     15.09948 
  309000    2009.5861    -725.7302    302145.86    15.176242 
  309500    1999.5374   -714.29395    302173.96    15.202068 
  310000    2034.2159   -696.27073    305909.45    14.984901 
  310500     2019.773    -679.6687     292249.8    14.874904 
  311000    1912.1591   -673.73903    278311.45    14.897536 
  311500    1998.6209   -653.19865     282849.5     14.90286 
  312000    2101.2984   -607.80718    304234.88    14.595349 
  312500    1942.1888   -647.69903    298953.71    14.779234 
  313000     1959.575   -610.16835    305257.42    14.610448 
  313500    1994.6676   -666.92672    298813.73    14.887131 
  314000    2036.3647   -688.79584    303331.64     14.95259 
  314500    2113.5946   -667.16159    292327.93    14.833723 
  315000    1881.9063   -703.81073    276436.86     15.01336 
  315500     1992.947   -720.46697    306658.07    15.077099 
  316000    1838.5399   -680.15082    292222.58    14.873532 
  316500    2065.1286   -718.17454    301192.85    15.137981 
  317000    1967.2612   -731.98163    297707.25    15.191339 
  317500    2060.2147   -695.41127    305334.25     14.91037 
  318000    2115.5909   -721.17565    305313.28    15.055577 
  318500     2040.487   -727.18139    298312.65    15.228125 
  319000    2110.7262   -731.78976    280591.01    15.215113 
  319500    1940.6446   -728.65541    301264.33    15.287548 
  320000    1880.1249   -692.34607    298672.71     14.92759 
  320500     2027.057   -683.20044    291447.29    14.858228 
  321000    2027.4534   -720.28873    305402.34    15.191815 
  321500    2018.1581   -727.58358    302714.76    15.181074 
  322000    2050.7254   -713.13191    301827.38    15.074043 
  322500    2220.3086    -718.1408    316233.32    15.092501 
  323000     2048.961   -724.49188    311277.79    15.067683 
  323500    2015.5922   -678.19436     313214.1    14.820866 
  324000    2036.9034   -729.76672    292245.59    15.258586 
  324500    2110.5955   -714.65231     311421.9    15.048923 
  325000    1878.8591   -717.90591    306815.33    15.097483 
  325500    1941.8114   -721.07717     306983.9      15.0995 
  326000    2070.9417    -731.4586    295833.94    15.205543 
  326500    1960.2217   -715.88283     307081.1    15.044794 
  327000    2093.5305   -704.15338     311598.7    14.930462 
  327500    1763.5536   -718.00776    293913.65    15.021637 
  328000    1892.9099   -722.43471    310379.69    15.077526 
  328500    1858.9968   -734.97287    291435.19    15.239865 
  329000    1933.0966   -730.83246    301266.23    15.223648 
  329500    1990.2715   -721.87658    308864.21    15.046494 
  330000    2029.8383   -724.44466    298316.28    15.107852 
  330500    1856.5323   -724.03478    306158.85    15.074091 
  331000     2062.156   -729.01864    303936.93    15.172098 
  331500    2039.2626   -722.69835    308692.93    15.043003 
  332000    1901.4683   -665.83482    316836.29    14.749554 
  332500    2122.7637   -727.06754    310697.75    15.136612 
  333000    1776.9454   -728.83212    300345.74    15.198562 
  333500    2087.0735   -714.45094    306209.46    15.087609 
  334000    1983.2437   -732.12694    295579.29    15.301185 
  334500    2008.8915   -733.99182    292729.09    15.302009 
  335000     2106.428   -677.99963     313656.2    14.818598 
  335500    1953.8783   -656.64018    306613.15    14.762411 
  336000    1905.1303   -625.09924    284807.06    14.668399 
  336500    1915.2852   -661.46217    306004.12    14.763613 
  337000    1858.4318   -627.71892    293652.86    14.736118 
  337500    2194.5039   -629.59918    304929.81    14.667165 
  338000    1957.4535   -598.16733    289711.56    14.688257 
  338500    1996.8559   -630.79122    294994.05    14.791524 
  339000    2041.2234   -639.14715    305891.13    14.981003 
  339500    1813.5087   -714.42989     292179.4    15.622448 
  340000    2108.8138    -685.3814    311418.28    15.466111 
  340500    2156.4631   -696.64847     302918.2    15.510397 
  341000     1930.263   -698.03653     297291.4    15.554919 
  341500    2027.6493    -703.2717    291147.74    15.597904 
  342000    2017.9378   -702.21298    296027.79    15.576381 
  342500    2123.3565    -689.1485     308040.1    15.427607 
  343000    2010.3048   -685.90758    302108.13    15.528522 
  343500    2088.8391    -701.8615    291539.64    15.613703 
  344000    1973.1486   -695.39939    296135.16    15.550927 
  344500    2016.3482   -699.43254    301844.87    15.535736 
  345000    2130.0339     -691.939    305816.53    15.523764 
  345500    1833.6216   -697.65498    293468.83    15.571808 
  346000    1985.6642   -697.16787    299700.18    15.533401 
  346500    1966.6535   -683.98617    313223.38    15.467815 
  347000    2114.9253   -703.81878    292084.41    15.610884 
  347500    1984.5404   -704.73375    293105.86    15.548969 
  348000    2087.7859   -683.73803    308527.85    15.421906 
  348500    1955.8753     -697.491    292977.94    15.571538 
  349000    1775.7832   -697.85973     291593.3    15.569054 
  349500    2133.7511    -700.7599    301022.44     15.56279 
  350000    1920.6152   -696.56243    296935.54    15.524672 
  350500    1983.0307   -702.78375    296603.26    15.536772 
  351000    1984.9063   -688.96418    307080.68    15.368209 
  351500    2143.2348   -705.74453    300034.19    15.510218 
  352000    2150.6635   -724.95359    290307.63    15.746086 
  352500     1978.906   -730.95082    308294.07    15.654433 
  353000    2003.2781   -719.85993    300543.72    15.595654 
  353500    2063.5129   -725.31597    304604.82    15.647255 
  354000    1964.4612   -733.83354    303372.91    15.684552 
  354500    2027.1423    -743.5924    299594.76    15.732877 
  355000    2135.2631   -746.85752    303683.09    15.717664 
  355500    1843.2608   -691.88187    299547.78    15.457816 
  356000    2135.3644   -739.69925    294520.45    15.776023 
  356500    1992.0665   -745.31176    301346.93     15.74763 
  357000    2012.3409    -741.3396    301817.33    15.736537 
  357500    2021.1536   -737.61492    303839.29    15.708158 
  358000    1943.0687   -751.91264    300998.79    15.711239 
  358500    2004.5492   -747.65865    308760.47    15.709606 
  359000    1992.0567   -750.10434    308906.27    15.677883 
  359500    1928.7941   -747.35839     296740.7    15.725839 
  360000     1944.917   -731.37852    308324.75    15.660098 
  360500    2061.3248   -726.63951    297910.27    15.680511 
  361000    2154.7607   -649.05681    298009.18    15.081981 
  361500    2349.6667   -712.57182    297277.28    15.526728 
  362000    2038.2272   -679.99254    309004.36    15.466326 
  362500    2013.9793   -684.20547    306772.38    15.467662 
  363000     1925.177   -694.85294    290222.99    15.534334 
  363500    1942.0231   -685.22728    310551.28    15.456809 
  364000    1909.9886   -694.80108    294486.16    15.542381 
  364500    1769.4845   -696.90049    299367.11    15.470971 
  365000    1945.2283   -717.20145    300416.61    15.567722 
  365500    2083.1974   -720.54401    298856.22    15.477781 
  366000    1824.0933   -736.61615     304578.7    15.561552 
  366500    1975.6832   -740.24915    309913.01    15.686158 
  367000    2071.6216    -754.4124    288491.08    15.724711 
  367500    2183.3936   -751.67919    301604.83      15.6739 
  368000    1846.3338   -757.43235    283837.02    15.698765 
  368500    1977.5751   -745.53036    308207.65    15.649085 
  369000     1911.136    -732.3154    306357.22    15.659014 
  369500    1989.5272   -732.31516    305831.16    15.672475 
  370000     1855.931   -732.00968     300830.8    15.705092 
  370500    2018.3734   -718.37604    293607.73    15.489467 
  371000    1973.8097   -669.24812    305807.08    14.922648 
  371500    1980.2605   -671.05994    299533.19    14.969496 
  372000    1780.0969   -689.64676    294678.14    15.113571 
  372500    2080.0889   -653.84798    303637.48    14.722589 
  373000    2143.0986   -638.13909    306522.55    14.650904 
  373500    1851.5874   -605.83138    296180.45    14.663582 
  374000    2143.2386    -629.5588    295165.86    14.684087 
  374500     1865.744   -708.11542    299281.67    15.269528 
  375000    2045.8048   -701.58382    303732.94    15.354057 
  375500    2023.5286   -707.85941    292868.02    15.520014 
  376000    2031.7493   -683.62694    303301.55    15.394182 
  376500    2103.0782   -646.40196    298288.77    15.167682 
  377000    2154.3213   -644.50666    304110.96    15.006924 
  377500    1860.9466   -649.28028    293475.97    14.948602 
  378000    2121.6422   -653.04104    287303.08    15.154033 
  378500     1918.522   -628.81867    305397.17    15.069881 
  379000    1857.6976   -649.10168    286839.97    15.216229 
  379500    2049.4516   -634.62316    305741.77    14.931332 
  380000    1936.0056   -640.84373    291793.87    15.058921 
  380500    2055.7145   -647.40207     296201.8    15.155028 
  381000    1983.5923   -644.01069    290259.93    15.188439 
  381500    2014.9002   -636.93652    305916.06    15.126596 
  382000     1922.964   -645.61616    299467.02    15.088575 
  382500    2124.7997   -665.35705    299624.48    15.302927 
  383000    1891.5499   -703.34619    295515.98    15.561996 
  383500    2065.9784   -693.64185    307692.85    15.459746 
  384000    1969.1724   -700.57808    301736.67    15.488782 
  384500    2133.3474   -704.54658    303845.16    15.472592 
  385000    1929.8958   -680.17328    290409.38    15.485549 
  385500    2214.2264   -663.11065    300831.96     15.03446 
  386000    2062.1065   -642.40592     305504.5    15.085706 
  386500    2081.0271   -659.84002     299573.1    15.201899 
  387000    2062.9167   -638.56216    304896.77    15.087479 
  387500    2074.2075   -647.63269    290608.08    15.220991 
  388000    1784.0923   -635.01616    297312.35    15.086859 
  388500    2265.2362   -659.56204    295887.16    15.226234 
  389000    2095.9382   -636.44708    308616.45    15.123435 
  389500    2057.5654    -692.6522    304952.77    15.432574 
  390000    2089.2645   -697.45037    291410.89    15.589961 
  390500    2303.5808   -700.50394    298785.42    15.554376 
  391000    2095.1805   -678.57081    307851.38    15.494662 
  391500    2233.4054   -670.25212    305663.64    15.478067 
  392000    1822.0526   -718.01197    294961.71    15.689069 
  392500    2097.3357   -646.14445     304694.2    15.020718 
  393000    1848.1237   -644.84078    298098.03    14.971075 
  393500    2184.1379   -629.39054    307941.61     14.89216 
  394000    2067.2581   -633.16934    304899.34    14.859787 
  394500    2104.0852   -596.85199    292458.08    14.697145 
  395000    2120.6891   -582.30704    308025.91    14.563901 
  395500    1920.8546    -589.4565     294617.5    14.613713 
  396000    1788.5597   -583.28843    296096.69    14.643524 
  396500    1891.0959   -589.17992    296254.38    14.633091 
  397000    1953.8555   -590.84599    302492.82    14.611832 
  397500    1874.6693   -652.18963    292914.03    15.091433 
  398000    1934.7455   -698.57962    287682.64    15.544663 
  398500    2008.1145    -688.5941    304111.76    15.483245 
  399000    2131.0313    -694.4518    296603.28    15.519267 
  399500    1973.6176   -708.44359     303799.7    15.447129 
  400000    2220.6497   -700.17235    307002.17    15.426441 
  400500    1931.0799   -721.27267    294287.69    15.522465 
  401000    2150.8571   -671.55441    296266.43    15.045927 
  401500    2080.9856    -658.7473    302855.12    14.854985 
  402000    1840.2787   -619.95821    297154.49    14.716943 
  402500    2091.1655   -670.48861    300076.12    15.062272 
  403000    1917.8805   -652.30348    296442.27    14.999604 
  403500    1920.4093   -716.92136    299052.19    15.430334 
  404000    2014.8911   -724.71784    290495.77    15.586115 
  404500    1901.2757   -652.40757     302043.6     15.03929 
  405000    1984.3357   -676.69353    295087.87    14.950247 
  405500    2034.6862   -689.82769    297093.15    15.039039 
  406000    2166.1515   -634.16981     301289.1    14.734607 
  406500    1964.5578   -675.19826    293389.14     14.96449 
  407000    1828.3854   -654.94325    298879.99    14.824825 
  407500    2021.5635   -723.18586    298574.64    15.337004 
  408000    2032.0727   -654.61203    303052.74    14.915832 
  408500    1935.6356   -672.42867    300049.81    15.108335 
  409000    1993.5477   -662.26293    300060.99     15.03325 
  409500    1908.5057   -583.24266     329536.1    14.575963 
  410000    2213.1343   -600.16601    301459.61    14.744763 
  410500    2082.0511   -591.68495    294337.32    14.611868 
  411000    1848.3731    -582.9929     308818.2    14.588509 
  411500    2058.1847   -586.87416    288315.75    14.627816 
  412000    1802.2413   -587.05401    284657.88    14.693933 
  412500    1882.9161   -573.21386    319558.57    14.612067 
  413000    1842.3401   -587.79362    306904.13    14.571028 
  413500    2055.2862   -593.60649     289453.1    14.672218 
  414000    2075.9366   -599.41458    289555.11    14.741737 
  414500    2095.0298   -590.32618    300175.59     14.72539 
  415000    2088.4128   -589.95404    297849.46    14.598328 
  415500    2150.1589   -593.30305    291487.78    14.652901 
  416000     1884.669   -588.86241    292075.28    14.662336 
  416500    1962.2774   -582.77943    302126.13    14.609254 
  417000    1951.0927   -588.57387    301209.46    14.679134 
  417500    1903.1721    -587.7435     293404.7    14.608688 
  418000    1912.9352   -579.56994    304907.17    14.577361 
  418500    1889.6851   -668.71912    294621.81    15.284196 
  419000    1995.8288   -704.27329    299766.92    15.497477 
  419500    1969.7476   -682.13316    310388.96    15.478863 
  420000    2032.2409    -704.7292     294163.9     15.60073 
  420500    1993.2452   -685.19711    306992.26    15.493929 
  421000    2089.8093   -660.90978    292793.85    15.174244 
  421500    2015.0837   -591.08709    296214.46    14.645167 
  422000    2021.8446   -582.01616    319345.35     14.56276 
  422500    1970.9328   -581.40892    300402.91     14.58879 
  423000    2040.0192     -578.754       324086    14.599981 
  423500    1883.6423   -596.63677    297315.39    14.645985 
  424000    2038.6728   -598.11715    290127.32    14.669026 
  424500    2148.3185   -597.02804    286600.26    14.638849 
  425000    1950.3404   -596.87984     283900.7    14.695046 
  425500    2012.1499   -618.75218    305681.46    14.877569 
  426000    2117.1891   -580.81172    313623.97    14.574312 
  426500    2117.9656   -586.42038    293985.96    14.652436 
  427000    2022.4467   -583.01572    299212.12     14.62631 
  427500    1860.6746   -577.69962    319253.76    14.582962 
  428000    1976.9707   -589.88859    298025.49    14.603648 
  428500    1910.3316   -636.20395    302051.45    14.798254 
  429000    1887.6921     -641.626    304667.45    14.844089 
  429500    2045.8597   -608.97387    303398.75     14.65201 
  430000    1893.0193   -686.70978    297879.48    15.215945 
  430500    1983.4286   -586.65122    314316.55    14.579766 
  431000    2036.8163   -612.02164    291313.18    14.655189 
  431500    2011.2927   -605.56261    296668.84    14.589695 
  432000    2083.5157   -712.80436    295502.42    15.446395 
  432500     2063.843   -702.37664    304624.43    15.277829 
  433000    2026.5438   -703.35648    302709.28    15.166141 
  433500    2153.6279    -708.2086    298153.23    15.220969 
  434000    2027.4235   -650.85989    304077.73    14.838871 
  434500     1981.543   -611.78775    296508.56    14.558463 
  435000    1970.3379   -606.82934    293096.62    14.436208 
  435500    2049.6762   -690.70354    301657.71    15.048153 
  436000    1993.6808   -706.69654    299601.48    15.176115 
  436500    1920.5427   -732.05775    297360.09    15.322363 
  437000    2074.6429   -675.41094    304996.79    14.874449 
  437500    2009.9301   -640.68879    300859.73    14.840024 
  438000    1957.1773   -614.53489    304533.15     14.60741 
  438500    2045.0487   -649.89903    299868.81    14.812137 
  439000    1905.7173   -719.54843    300300.63    15.203087 
  439500    1963.2834   -712.97427    300889.19    15.139531 
  440000    2012.3213   -656.14519    303817.46    14.859516 
  440500    2017.3036   -755.64421    277569.63    15.683509 
  441000    1905.3419   -752.62713    303554.33    15.572001 
  441500    1895.3954   -731.04965    303795.44    15.295413 
  442000    1811.5995   -687.72091    291165.43     15.01862 
  442500    1884.2174   -619.71582    295518.45    14.634363 
  443000    2125.2273   -677.24532    304797.72    14.962103 
  443500    2042.8372    -713.6904    299371.62    15.444627 
  444000    1988.8027   -709.19294    301445.42    15.464464 
  444500    2108.4775   -697.84154    301351.79    15.420815 
  445000    2106.8251   -701.93311    300721.97      15.4819 
  445500    1974.0274   -637.10543    305662.36    14.921708 
  446000    1967.1971    -623.6004    299716.92     14.77577 
  446500    1981.4094    -593.8887    299691.62    14.627561 
  447000    1878.7476   -593.42721    308681.41     14.58857 
  447500    1831.7345   -643.06373     297668.1    14.884598 
  448000    1870.7886   -606.40166     301636.8    14.703521 
  448500    1842.2574   -620.81571    294462.89    14.709044 
  449000    1998.3195   -678.25486    299821.87     15.21801 
  449500    2106.0175   -697.55782    305111.77    15.453771 
  450000    1936.0329   -704.94346    300462.08    15.460894 
  450500    2007.5769   -682.76311    298868.68     15.32051 
  451000    2007.9711   -703.72023    304254.86    15.417822 
  451500    1982.8082   -705.50139    294314.28    15.603532 
  452000    2153.6414   -699.04434    295323.97    15.516241 
  452500    2066.9714   -686.00047    306381.22    15.400376 
  453000    1974.2475   -685.53779    300113.13    15.247516 
  453500    1925.9686   -707.99821    304028.18    15.455126 
  454000    2049.2986   -697.29377    302219.52     15.30585 
  454500    2027.4482   -705.24849    308770.08    15.365451 
  455000    1758.8739   -643.23241     305698.6    14.970674 
  455500     2085.966   -588.27396     324230.5    14.495916 
  456000    1876.9358   -664.28606    299417.71    14.992337 
  456500     1951.232   -756.51857    285956.92    15.693916 
  457000    2265.0387   -739.01737    308638.32    15.456904 
  457500    1931.6171   -641.93435    300196.28    14.903045 
  458000    2093.7993   -601.12788    304792.92     14.56806 
  458500    2110.3004   -679.63747     300211.3    15.032123 
  459000    2096.0442   -666.54294    287361.48    14.990899 
  459500    2008.3736   -603.68042    292763.19    14.656324 
  460000    2121.5576   -603.38344    301265.04     14.61108 
  460500    2069.9939   -591.54927    315291.12     14.40166 
  461000    2010.6222   -613.72841    298262.81    14.553458 
  461500    2052.8658     -600.277    288983.84    14.424402 
  462000     2024.675   -594.95143    311171.21    14.393625 
  462500    2085.8659   -602.29135    290159.83    14.456838 
  463000    2000.4235    -587.0077    314213.66    14.415099 
  463500    2062.4624   -646.27145    302524.19    14.631046 
  464000    1796.3868   -604.41179    302420.62    14.393355 
  464500    2007.4755   -613.70861    292729.64    14.409782 
  465000    1954.4244   -597.46538    297489.23      14.3785 
  465500    1900.4582   -599.27164    307850.41    14.346249 
  466000    1885.5599   -613.09689    293833.66    14.392168 
  466500    1901.0332   -745.45637    302727.56    15.268654 
  467000     1939.635   -757.90693    298065.42     15.38159 
  467500    1926.1215   -756.05714    299111.56    15.361422 
  468000    2068.3555   -757.85843    296816.37    15.383712 
  468500    1961.2518   -755.20477    310601.71    15.315482 
  469000    2076.4524   -706.82312    311691.23     14.94316 
  469500    1895.2541   -713.22707    306613.29    14.912608 
  470000    1930.9436   -708.64403    306438.25    14.935678 
  470500    1933.3472    -714.0181    292405.58    15.088721 
  471000    2056.2909   -652.24873    304451.01    14.701608 
  471500    1888.4294   -740.54273    308581.37    15.406062 
  472000    2147.9439   -756.39425    304114.91    15.607476 
  472500    1858.4175   -755.99741    298115.86     15.63904 
  473000    2147.7284   -742.48652    309479.57    15.499443 
  473500    1953.9894   -758.05763    282040.26    15.649346 
  474000    1989.8742   -755.18748    309470.44    15.539374 
  474500    2045.9626   -755.49548    301041.91     15.53952 
  475000    1980.8465   -755.74903    299064.25    15.591287 
  475500    2065.3922   -742.87044     309814.9    15.515163 
  476000      1866.12    -687.8563    297784.94    15.044408 
  476500    2016.5319   -695.88962    302773.06    14.978983 
  477000    2093.6538   -723.75181    297741.41     15.24931 
  477500    2075.2767    -686.0382    304398.22    14.964555 
  478000    2102.5476   -721.51892    295974.81    15.327526 
  478500    2165.5782   -721.14043    295465.91    15.219622 
  479000    2016.6208   -626.49301    299608.06    14.479847 
  479500    2213.0142   -659.35511    298476.79    14.636051 
  480000     2055.491   -655.70023    302046.46    14.620037 
  480500    2001.4364   -671.25734    297545.76    14.647144 
  481000    1957.7881   -686.05393    300407.34    14.646422 
  481500     1960.037    -649.7193    305094.82    14.535987 
  482000    1978.1098   -619.14526    312338.38    14.309382 
  482500    2113.9868   -680.74044    303938.38    14.723174 
  483000    2006.4779   -691.16019    298187.61    14.750008 
  483500    1929.9505   -714.34171    310050.39    14.860719 
  484000    1937.0683   -702.99619    304458.91    14.823421 
  484500    1927.9736   -666.66798    300639.64    14.643475 
  485000    1899.9068   -638.88158    298352.95    14.635467 
  485500    2045.8414   -672.53125    300157.45    14.663065 
  486000    2045.1437   -655.64688    294253.87    14.674537 
  486500    2189.8378   -667.55259     304821.8    14.560055 
  487000    2167.2624    -693.0099    293953.62    14.706076 
  487500    2065.1532   -625.48907    301974.12    14.365972 
  488000    2018.1248   -630.86433    310074.55     14.36136 
  488500    2082.6392   -698.98579    288074.95    14.724897 
  489000    1941.1365    -665.9996       293327    14.718216 
  489500    1934.3787    -661.5951    297115.63    14.676318 
  490000    2049.2694   -602.33444    306175.94    14.339709 
  490500    1955.6778   -649.03608    304038.71    14.576744 
  491000    2062.7327   -665.31961    303424.39    14.632332 
  491500    2017.8807   -662.20135    304198.26     14.62369 
  492000    2073.2882   -664.91281    297595.14    14.625401 
  492500    2028.4779   -671.72248     296029.3    14.633971 
  493000    1805.4268   -672.10473    299795.14    14.572408 
  493500    2110.3249   -671.08194    298496.68    14.608466 
  494000    1809.6654   -679.63165    293264.76    14.635222 
  494500    1957.4401   -648.93046    303919.15     14.60498 
  495000    2050.9147   -657.37586       299198    14.661553 
  495500    1876.5015   -706.25535    304492.68    14.872832 
  496000    1960.8932   -662.45515    300620.96    14.593324 
  496500    1968.6835   -669.08642    305435.42    14.635368 
  497000    2185.6412   -715.22714    307784.66    14.879918 
  497500    1895.2603   -707.28777     294966.5    14.956647 
  498000    2047.8791   -703.60006    302846.83    14.873242 
  498500    1988.4393   -654.59132    309165.54    14.578632 
  499000    1995.8099   -704.27675    312280.12    14.811162 
  499500    1976.9366   -732.48784    299146.06    15.124546 
  500000    2098.4233   -730.39955    289948.73    15.183162 
  500500    2019.2446   -721.74312    297066.15     15.08806 
  501000    1997.0718   -712.18323    299524.25    14.902924 
  501500    1898.8475   -689.29934    307087.63    14.817125 
  502000    1898.1689   -675.51208    299037.82    14.751601 
  502500    2189.0953   -671.44606    295299.96    14.655992 
  503000    2020.2356   -708.20798    288937.83     14.97026 
  503500    1898.3035   -665.31168    301741.19    14.642288 
  504000    2168.8636   -718.72935    297626.59    14.953393 
  504500    2013.8198   -676.42459    301483.56    14.686533 
  505000    1913.1773   -663.80921    304968.39    14.641661 
  505500    2101.9054   -700.35615    307482.73    14.925935 
  506000    1966.3611     -733.934    299671.49    15.281991 
  506500    2139.8507   -756.97103    312231.77    15.473184 
  507000    2013.1278   -754.20869    281255.74    15.513574 
  507500    1935.3044   -759.67134    286562.82    15.569481 
  508000    1971.5249   -720.65133    289733.03    15.275722 
  508500    2104.8915   -596.59831    294821.03    14.494636 
  509000    1822.6388   -600.70271    298447.73     14.60904 
  509500    1900.0528   -604.33362     287655.9    14.560796 
  510000    1953.7905   -625.30748    296540.69    14.723561 
  510500    1968.8879   -597.97902     291410.9    14.450357 
  511000    1895.9053   -597.69671    286633.73    14.481878 
  511500    1911.8701   -605.17651    290819.99    14.390262 
  512000    2119.0497   -590.37496    310701.63    14.362141 
  512500    1878.2477   -629.59155    298836.54    14.577598 
  513000    1982.2395   -650.68938    299656.37    14.646642 
  513500    1897.5587   -670.01112     307602.3    14.547335 
  514000    1893.9961   -692.22659    302222.58    14.618806 
  514500    1993.2388   -736.22995    302758.51     15.12259 
  515000    1725.7045   -725.79203    295603.92    15.049604 
  515500    2025.0558   -722.34569    300363.56    14.968216 
  516000    1995.9082   -679.60546    295973.78    14.722139 
  516500    1819.8864   -702.05538    290672.11    14.816564 
  517000    2007.9367   -712.60502    286263.38    14.895573 
  517500    2287.9313   -658.39929    325487.68    14.565071 
  518000     2034.048    -705.5669    299373.36    14.964462 
  518500    1988.9238   -672.35091    302950.55    14.797768 
  519000     1977.335   -679.13131    303476.59    14.686301 
  519500    1840.9719   -713.83214    302383.88    14.902596 
  520000    2032.2624   -718.99789    305930.93    15.013168 
  520500    1938.6989   -713.93073    306952.94    14.925832 
  521000    1872.2881   -706.20948     300256.7    15.027037 
  521500    1991.5776   -758.35855    282495.27    15.499824 
  522000     1925.324   -718.58924    293563.96    15.145429 
  522500     2015.986    -731.6863    295604.69    15.189477 
  523000    2055.7619   -732.20338    297377.08    15.152269 
  523500    2027.0362   -723.08239    293848.86     15.18892 
  524000    2029.2175      -714.84    306795.55    14.998067 
  524500    1915.3532   -639.44936    304986.45    14.527307 
  525000    2029.9578   -661.83059    296805.62    14.622833 
  525500     1953.891   -642.87615    290958.94     14.42481 
  526000    2013.1211   -604.77816    307108.56    14.319096 
  526500    1990.6307    -646.9295    300055.48    14.488913 
  527000    1913.9792   -671.62991    302309.44    14.505758 
  527500    1943.4536   -671.52051    296141.46    14.565325 
  528000     1830.619   -664.53827    304242.71    14.567136 
  528500    1931.3885    -668.1615    299435.45    14.677187 
  529000    2023.8851    -622.3929       314746    14.318373 
  529500    2163.5607    -739.2581    298305.65     15.01536 
  530000    2000.4487   -712.13423    305759.15    14.881936 
  530500    2032.7598   -713.15705    297095.03    14.816119 
  531000    1726.5144   -680.35145    286456.34    14.693152 
  531500    2046.9798   -626.87582     289687.3    14.401737 
  532000    1956.5139   -642.48759     303908.9    14.358819 
  532500     1871.542   -717.44161    306664.67    14.913648 
  533000      1940.61   -757.33892    289990.65    15.394707 
  533500    2006.1142   -759.56652    286427.16    15.434088 
  534000    1933.2032    -756.1451    304769.15    15.344263 
  534500    2097.5661   -748.70422    309372.61    15.366694 
  535000    1950.9325   -751.52366    300362.61    15.460859 
  535500    1877.6711   -714.77097    301613.28    15.093911 
  536000    2095.3271   -697.52812    301550.77    15.030567 
  536500    1867.1456   -655.46487    297631.09    14.773805 
  537000    2136.4501   -608.47125    295730.24    14.596499 
  537500    1957.4904    -592.3224    315428.03    14.427769 
  538000    2000.7074   -649.86549    296937.99    14.726538 
  538500    2007.6687   -650.61087    300791.88    14.698283 
  539000    2069.7425   -621.00042    297202.28     14.64838 
  539500    2039.9658   -603.08474    296458.37    14.580249 
  540000    2122.3164   -608.59581    304341.53     14.59485 
  540500    2057.2315   -588.53771    306040.34    14.520063 
  541000    1976.7373   -603.65056    302420.18    14.642887 
  541500    2108.4094   -620.15322    299004.01    14.828406 
  542000    2166.4688   -660.04849    301505.92    15.093277 
  542500    2079.6563   -661.24032    300988.26    14.922062 
  543000    1765.1957    -606.1453    289125.93    14.658796 
  543500     2027.178   -634.07817    291172.75    14.726598 
  544000    2249.8658   -613.51197    299192.49    14.656816 
  544500    2257.0437   -587.70431    312412.81    14.587905 
  545000    2097.2697   -673.46077    298441.58    15.005002 
  545500    1873.0482   -602.82381    296363.72    14.614886 
  546000    1986.4178   -643.80883    298911.69     14.78944 
  546500    2136.2611   -638.03612     302205.6    14.821137 
  547000    2039.9842   -603.52878    299097.89       14.662 
  547500    2109.2972   -614.08968    300430.17    14.606547 
  548000    2056.2908    -612.6885    293863.67    14.590029 
  548500    2176.5988   -611.39438    302939.52    14.631655 
  549000    1846.6355   -597.07893    297280.03    14.644312 
  549500    2120.0757   -695.46741    297560.49    15.542634 
  550000    2104.3536   -682.08168    296786.96    15.495477 
  550500      1867.86   -655.18349    300198.15    15.149349 
  551000    2164.6236   -697.11254    292705.58    15.551755 
  551500    1914.2131   -705.22518    295870.42    15.507501 
  552000     1994.304   -711.00982    292994.88    15.572072 
  552500    1928.5272    -742.3531    301244.78    15.771738 
  553000    2049.7802   -752.20223    306370.03    15.653605 
  553500    1937.8338   -754.50131    284252.92    15.742808 
  554000    1952.4952   -750.69466    289825.42    15.746109 
  554500    1990.5956   -744.54327    303529.69    15.679111 
  555000    2113.1303   -745.89199    304742.14    15.693708 
  555500    1887.5709   -735.43579    295202.47    15.723321 
  556000    1989.8085   -752.22893    300069.97    15.692478 
  556500    2011.1222   -747.97839    301088.95    15.530152 
  557000    1824.5507   -700.97916     294333.9    15.112841 
  557500    2111.1482   -685.02215    292986.77    15.014594 
  558000    1958.9095   -684.87483    275894.69    14.897857 
  558500    2147.5148   -697.52704    303764.73    14.971648 
  559000    1803.5871   -687.34122    300906.19    14.894104 
  559500    1832.7333     -697.559    301213.76    14.932903 
  560000     1868.011   -666.87932     305143.1     14.76369 
  560500    2066.7975   -704.17938    300016.09    15.090521 
  561000    2069.4773   -672.35391    293373.54    14.817904 
  561500    1905.2153   -686.63751     294892.1     14.91958 
  562000    1862.7442   -714.03443    301200.06    15.186971 
  562500    2080.0277   -691.02511    305247.26    14.925953 
  563000    1930.9529   -720.66411    303297.95    15.133935 
  563500    1885.3262   -728.82528    304094.64    15.181185 
  564000    1915.3712   -717.69778    305496.53    15.117443 
  564500    2129.1351   -680.08426    311602.93    14.798326 
  565000    1912.0885   -676.53017    287524.96    14.830948 
  565500    1936.8446   -684.71125    309708.78    14.824402 
  566000    1870.9633   -669.95543    304938.92    14.799083 
  566500    1897.5777   -671.08082     290574.6     14.80296 
  567000    1923.7839   -724.11527    301726.28     15.21754 
  567500    1980.3893   -729.84325    303285.52    15.199846 
  568000    2045.9931   -685.88515    307766.55    14.831401 
  568500    1823.5542   -739.45791    299795.28    15.228617 
  569000     2061.652   -722.97259    304546.87    15.105579 
  569500    1956.0851   -720.15575    301936.76    15.034454 
  570000    2167.0582   -728.03781    302103.81    15.150872 
  570500    2134.6581   -724.24796    296224.48    15.173461 
  571000     2113.515   -732.10095    305767.24    15.214302 
  571500    1808.9491   -700.34003     295995.9    14.975123 
  572000    1978.4912   -737.41018    300492.03    15.211046 
  572500    1902.5899   -726.46185    293727.38    15.156264 
  573000    2164.5152   -659.58339    312336.92    14.734238 
  573500    2168.1933   -738.69929    291454.42    15.279294 
  574000    2112.3878   -686.77677    306598.61    14.870594 
  574500    1985.6131   -735.22918    299732.64    15.205224 
  575000    2193.6948   -711.41769    300974.15    15.040013 
  575500    1888.9559   -690.42608    300765.91    14.921843 
  576000    2143.9863   -704.38497    302857.42    15.030431 
  576500    2118.6406   -735.19245    301483.12    15.300035 
  577000     2002.078   -750.46054    292022.59    15.420249 
  577500     2130.131   -747.41327    298986.97    15.387733 
  578000     1997.211   -712.88244    290370.62    15.071442 
  578500    1979.7463   -701.82699    309162.32    14.945747 
  579000    2083.3818   -681.22065    293980.55    14.893201 
  579500     2062.096   -684.69334    295071.24    14.874631 
  580000    1858.0718    -681.8263    306332.47    14.826452 
  580500    1880.3343   -674.72964    300479.28    14.836466 
  581000    2018.7386   -683.19121    293207.45    14.903669 
  581500    2025.5859   -647.67626    310227.35    14.705555 
  582000    2022.7916   -639.05969    302674.78    14.753164 
  582500    1969.2857   -632.93406    299883.56    14.777519 
  583000    2020.9773   -662.33075     291864.4    14.954348 
  583500     2031.374   -664.78512    297326.45    14.884819 
  584000    2040.6696   -639.49181    300812.65    14.712697 
  584500    1762.7965   -618.83759    307148.39    14.630756 
  585000    1892.6295   -643.25774    312828.77    14.660011 
  585500    2020.5124   -674.86651     292693.5    14.831178 
  586000    2028.7152   -680.81021    298069.92    14.848838 
  586500      1863.43    -653.1217    303652.27    14.775245 
  587000    1936.6674   -712.61899    299938.95    15.039661 
  587500    1980.0972   -685.09516    304414.87    14.881234 
  588000    1912.4405   -722.76513    305450.21    15.111716 
  588500    1665.3788   -704.00987    302042.69    14.971778 
  589000    1900.7578   -685.25675    291158.46    14.895043 
  589500    1965.7091   -743.46754    299559.32    15.337848 
  590000    1829.0873   -738.82385    298431.86    15.344112 
  590500    2103.4762   -683.00235    307272.76    14.909256 
  591000    1929.3945   -638.21371    299715.72    14.738221 
  591500    2017.7915    -638.2187     302982.6    14.643498 
  592000    2186.4363   -660.81512    301063.92    14.745532 
  592500    2047.5238   -674.41079    297122.52    14.841883 
  593000    1847.3193   -683.57635    298612.65    14.906337 
  593500    1972.6909   -706.72522    299509.06    15.011602 
  594000    2185.5599   -687.30283    313065.17    14.840333 
  594500    1898.9313   -683.18115    301957.23    14.892319 
  595000    1957.5135     -656.666    302618.07    14.735764 
  595500     2094.866   -746.62387    298861.95    15.385027 
  596000    1848.7084   -698.63323    300757.13    14.960826 
  596500    2008.5906     -728.659    295598.37    15.176448 
  597000    2008.7497   -724.43118    305911.54    15.098704 
  597500    2143.1595   -707.25127    295189.68    14.970295 
  598000    1897.0926   -674.99403    304033.87    14.816679 
  598500     1895.638   -701.08834    302772.74    14.894189 
  599000    1891.0432   -660.80866    299240.47    14.749641 
  599500    2112.2918   -683.76084    316496.94    14.825619 
  600000    1993.1146   -726.21382    303152.45    15.106193 
  600500    2071.2729   -682.60914    300818.42    14.821392 
  601000    1977.4316    -750.5334    291891.72    15.374321 
  601500    2085.6193   -718.78018     306122.1    15.082346 
  602000    2004.6251   -716.76184    301755.36    15.110191 
  602500    2190.7564   -747.79274    296454.19    15.348835 
  603000    1895.4684   -678.69775    309450.69    14.820461 
  603500    2162.6829   -705.08328    285336.04    14.956684 
  604000    1984.3478   -686.26356    309041.77    14.860952 
  604500    2011.0244    -740.3159    292128.83    15.256298 
  605000    1927.8503   -718.24905    306064.34    15.085592 
  605500    2132.2358   -737.76601    301659.72    15.266642 
  606000    2026.8183   -721.67171     302351.7    15.058682 
  606500    2108.6178   -709.57918    307769.99    15.008269 
  607000    2047.9739   -676.81586     301987.4    14.832929 
  607500    2150.8741   -739.09502    301366.03    15.337598 
  608000    1909.1811   -743.06613    301875.87    15.334965 
  608500    2030.1465   -699.26303    297871.13    15.001967 
  609000    2069.6364       -719.8    306997.47     15.08134 
  609500    2006.8428   -760.74937    285772.48    15.558542 
  610000    1966.4396    -716.6038    295980.42    15.128322 
  610500    2000.9661     -737.785    300647.96     15.33158 
  611000    1998.2763    -715.1503    299920.42    15.090939 
  611500    1970.0535   -743.83516    299669.16    15.288286 
  612000    2061.5081   -747.97688    302137.24    15.391935 
  612500    2095.8162   -762.22703    298833.93    15.574948 
  613000    2142.0374   -707.48136    294525.78    15.028548 
  613500    2009.2439   -713.94879     298587.1    15.099321 
  614000    1937.2454   -753.46411     300974.4    15.428675 
  614500    1996.6124   -724.63044    300441.64    15.112616 
  615000    2012.7256   -714.21322    303578.22    15.024371 
  615500    1939.9008   -718.75937     304164.2    15.086721 
  616000    1900.3201    -749.6056    296988.41    15.462575 
  616500    2082.8875   -690.78895    298890.02    14.897732 
  617000    2132.5061   -730.41809    305237.99    15.205999 
  617500    1979.9597   -738.74739    290512.93    15.247983 
  618000    1933.1546   -713.76981    305435.36    15.050892 
  618500    1790.5628   -725.78258    292234.68     15.26097 
  619000    2028.3869   -704.29461     307045.2    14.955568 
[...]
14848500    2145.2345   -640.60836    305150.89    14.740966 
14849000    2088.6366   -661.09752    310333.64    14.700281 
14849500    1967.4172   -650.23079    292105.47     14.72939 
14850000    1916.6513   -689.26432    300079.25    14.930619 
14850500    1933.5189   -724.28514    298731.61    15.134365 
14851000    2011.9084   -726.22485    300821.79    15.113076 
14851500    1981.1594   -656.43655    304170.08    14.736112 
14852000    2243.7556   -647.29827    296657.11    14.757808 
14852500     1918.516   -635.42944     302655.3    14.678148 
14853000    1892.0894   -638.93101    301682.52    14.697056 
14853500    2187.8834   -650.69715    299255.44    14.861152 
14854000     2010.379    -593.1456    300735.54    14.555755 
14854500    1990.6412   -580.79553     320016.5    14.440883 
14855000    1847.2395   -590.40731    299837.75    14.511938 
14855500     2073.555   -602.73962    306784.27    14.514983 
14856000    2167.0576   -595.93133    309166.52    14.525781 
14856500    2128.9545   -652.91511    305236.92    14.696234 
14857000    1966.5018   -675.81916    299970.96    14.826388 
14857500    1935.1135   -741.63892    306967.37    15.382603 
14858000    2066.6755   -750.49858    301982.75    15.589617 
14858500    1976.5895   -703.57773    298006.64    15.162473 
14859000    2040.4261   -709.56897    307404.12    15.121576 
14859500    2190.1182   -719.56556    295962.71    15.183645 
14860000    1931.2813   -718.70011    297072.38    15.162844 
14860500    2091.2334   -738.14295    307470.91     15.28317 
14861000     2003.382   -721.37042    304549.64    15.206036 
14861500    2087.0791   -655.51747     309463.7    14.705016 
14862000    2035.3759   -644.76241    300314.92    14.720782 
14862500     2073.784   -663.81485    291893.66    14.784159 
14863000    1918.4467   -682.92225    303359.89    14.835619 
14863500     1944.938   -656.13765    286269.57    14.706227 
14864000     2020.624   -658.95759    291880.64    14.694057 
14864500    2100.0246   -674.01115    311396.74    14.735118 
14865000    2090.2827   -713.91866    298735.83    14.995883 
14865500     2002.049   -712.87162    310469.04    15.000094 
14866000    2351.3151   -722.80976    296939.02    15.024105 
14866500    1929.9775   -713.43652    301113.77     14.94729 
14867000    1896.0675    -711.2422    295116.58    14.948191 
14867500    2087.7864    -698.0652    294871.48    14.845396 
14868000    1906.4651    -682.0225    304910.04    14.797664 
14868500    1921.7608   -656.08442    309514.63    14.670301 
14869000    2060.8644   -699.99217    313203.95    14.924316 
14869500    1982.0361   -731.95781    300024.58    15.088282 
14870000     1956.008   -669.92736    299366.42    14.716485 
14870500    2073.8001   -663.67752    301969.63    14.773495 
14871000    1934.7021   -679.95596    302286.53    14.884414 
14871500    2201.2633   -660.68617    293737.42    14.680535 
14872000    2128.2019   -661.76758    290068.39    14.714705 
14872500    2116.7939   -671.19783    301163.43    14.773724 
14873000    2115.2344   -657.73298    295677.99    14.646744 
14873500    2209.7319   -658.26804    308801.57    14.656779 
14874000    1898.4246   -674.79541    296874.43    14.821577 
14874500     2085.137   -655.20239    299778.89    14.779866 
14875000    1856.5585   -660.47353    290735.24    14.898328 
14875500    2146.1081   -671.82415    295673.88    14.886255 
14876000    1932.7354   -624.52233    305420.86     14.60342 
14876500    1940.8713   -645.93031    279276.16    14.726963 
14877000    2033.6529   -730.33744    299243.02    15.242603 
14877500     1941.271   -751.16959    297839.24    15.445034 
14878000    2003.5852    -709.5728    303526.59    15.053356 
14878500    1724.5079    -709.8005    295741.65    15.121563 
14879000    2147.6224   -722.21098     295109.9    15.055625 
14879500    1982.5951   -695.33241    302201.34    14.965271 
14880000    2143.2581   -719.19188    297377.14    15.175631 
14880500    1957.0389   -700.50326    304475.96    14.970719 
14881000    1998.2168   -713.91319    284485.83    15.046107 
14881500    1990.7487   -710.63498    279182.45    14.999141 
14882000    1819.8762   -722.12639    292660.56    15.121587 
14882500    1811.8548   -658.58941    297902.76     14.70594 
14883000    1963.7031   -670.23174     295188.4    14.752615 
14883500    2165.3738   -647.87411    313355.82    14.672297 
14884000     1941.898   -711.84844    295795.67    15.154571 
14884500    1855.6851   -748.21505    298104.47    15.434412 
14885000     2222.196    -616.8827    322603.58    14.480885 
14885500    2069.3414   -666.89849    276791.28    14.730954 
14886000    2023.8613   -667.11308    291149.92    14.719658 
14886500    1905.2728   -669.57094    289080.71     14.74311 
14887000    1904.4657   -653.47643    308462.94    14.668423 
14887500    2008.0281   -653.60305    311492.79    14.699078 
14888000    1840.6616   -713.61444    275276.09    15.001784 
14888500    1983.1678   -699.03027    297259.64    14.913167 
14889000    1930.7964    -703.5696    294342.03    15.018856 
14889500    2036.6923   -719.35023    293075.51    15.067443 
14890000    1921.8171   -700.45843    296983.82    14.870855 
14890500     1857.068   -752.97968    298622.42    15.354336 
14891000    2019.5162   -707.73835    283007.05    14.926221 
14891500    1922.7902   -668.36748    290298.05    14.724105 
14892000    1929.0065   -665.46844    300403.39    14.744609 
14892500    1892.1387   -712.81591    307118.24    15.056005 
14893000    1881.6346   -707.29658    293410.55    15.090566 
14893500    2068.3503   -700.23863     299372.7    15.114217 
14894000    1940.5683   -749.92321    298848.15    15.484828 
14894500    1992.1949   -709.47106    291349.42    15.098333 
14895000    2067.1717   -675.32348    299464.18    14.878193 
14895500    1912.2725   -704.20168    296629.57    15.152279 
14896000     1864.681   -692.07599    303240.23     15.09385 
14896500    1964.0921   -719.08213    296072.91    15.191874 
14897000    1846.7876   -705.43866    297426.91    15.248338 
14897500    1907.3772    -700.4228    300613.27    15.212728 
14898000    2075.9675   -617.67521    311198.92    14.594523 
14898500    1810.1992   -658.28047     295522.5    14.874288 
14899000    2133.8347   -648.20395    304640.04    14.672711 
14899500    1911.2971    -651.5427       305961    14.670252 
14900000    2083.4572   -672.40707    299283.59    14.753257 
14900500    1947.4083   -736.64336    302806.97    15.258711 
14901000     2189.345   -713.19133    305022.15    15.032668 
14901500    1798.1138   -708.32623    294329.17    15.004897 
14902000    1985.9051   -720.48454    297168.24    15.125186 
14902500    1981.4357   -758.71813    275899.21    15.384142 
14903000    1973.2438   -677.63466    292956.03    14.799239 
14903500    2021.5803   -645.48287    309609.19    14.584457 
14904000    1920.4747   -651.51754    279178.85    14.663114 
14904500    2135.6608   -675.05619    296193.95    14.759506 
14905000    2087.6032   -674.04172    304893.52    14.753425 
14905500    1951.1769   -656.24431    296081.76    14.693451 
14906000    2093.0294    -676.3215    274959.44    14.745714 
14906500    1920.3197   -660.23554    304170.97    14.738552 
14907000    2003.8992   -669.05646    297243.21    14.852313 
14907500    1981.3296   -696.08444    309435.61    15.002308 
14908000    1801.9818   -745.16884    292577.53    15.422572 
14908500     2263.986    -743.2557    300678.22    15.264279 
14909000     1926.758   -752.65536    285001.57    15.391969 
14909500    1956.3531   -700.86144    295401.11    14.892652 
14910000    1947.5957    -698.8626    297388.13    14.965357 
14910500    1929.5107   -602.46637       303135    14.485902 
14911000    1949.3628   -636.61157    304693.03    14.636076 
14911500    2070.7413   -650.23825    299650.82    14.678769 
14912000    1899.0569   -641.04747    306550.07    14.635702 
14912500    1892.5512   -644.17011    297820.83    14.675558 
14913000    2001.0771   -607.20733    318780.65    14.485911 
14913500    2060.3917   -714.59102    298987.02    15.157795 
14914000    2101.2202   -712.81736     307079.1    15.110763 
14914500    2225.1211   -686.03316    307494.08    14.890364 
14915000    1982.6855   -745.60057    295549.03    15.360976 
14915500     1952.943   -659.57223    303989.73    14.726986 
14916000    2098.1504   -725.90158    285435.43    15.145572 
14916500    2128.9634   -740.53355    306474.83    15.396605 
14917000    2013.3224   -743.23666    304370.62    15.312912 
14917500    1988.2502   -743.08437     310113.5    15.344459 
14918000    1906.7643   -623.71062    305009.98    14.639791 
14918500    1873.7749   -699.50338    303734.27    15.005289 
14919000    1905.9951   -667.54614    297840.03    14.756769 
14919500    1987.0198   -663.26621    295797.59    14.740244 
14920000    1906.4507    -673.8195    298257.41    14.772304 
14920500    1984.6951   -659.76734     308098.2    14.695334 
14921000    1891.4491   -612.35954     310455.2    14.523517 
14921500    1999.1246   -616.48156    301737.09    14.557084 
14922000    1990.4489   -673.51313    286219.02    14.801427 
14922500    2106.4285   -653.75025    307490.65    14.707088 
14923000    1951.8204   -748.84776    283498.12    15.402973 
14923500    2037.7585   -748.13649    307908.78    15.316394 
14924000    1880.3536   -754.12056    285496.96    15.448731 
14924500    1882.4744   -690.92127    302496.63    14.921002 
14925000    2012.8153   -670.14877    302849.34    14.808125 
14925500    1921.0212   -708.11885    311506.01    14.954344 
14926000    1865.0995   -682.12481    290094.08    14.785997 
14926500    2114.6109   -661.66997    299848.21    14.675434 
14927000    1887.4821   -727.58028    283375.54    15.139791 
14927500    2081.3575   -692.15144     294831.4    14.828284 
14928000    2178.5487   -752.30093    291248.38    15.334122 
14928500     2005.178   -743.53063    302119.45    15.287174 
14929000    1974.4486   -745.97134    303449.19    15.364435 
14929500    2198.4406   -760.52229    290469.73     15.59111 
14930000    1771.4191   -648.82963    293464.66    14.684325 
14930500    2051.6245   -662.80096    285497.63    14.786061 
14931000    2017.0586   -660.23538    294623.78    14.768493 
14931500    2019.4446   -664.01231    299765.91    14.754193 
14932000    1974.6599   -675.03329     302471.1    14.907878 
14932500    1929.8753   -663.16817    296204.47    14.724275 
14933000    1967.2279   -660.85806    294349.31    14.812325 
14933500    1967.9836   -654.91675    283896.17    14.725512 
14934000    1810.9541   -653.80186    298911.73    14.733306 
14934500    2016.9063   -665.89685    299522.57    14.803987 
14935000    1944.0865   -658.90743    305480.39    14.697886 
14935500    1966.6948   -693.18714    308864.92    14.947346 
14936000    1982.4495   -703.19752       298589     15.09658 
14936500    2038.9414   -697.99844    304404.64    14.970902 
14937000    2267.5533    -699.7577    288456.93    15.099593 
14937500    2020.2813   -696.45366    300475.45    15.178198 
14938000    2065.6401   -715.05663    298018.18    15.215311 
14938500    2105.6245   -728.92958    301671.82    15.280525 
14939000    1740.7793   -705.06771    297428.71    15.182571 
14939500    1960.8997   -707.23042    297217.88    15.146851 
14940000    1849.4134   -669.84705     297002.4    14.939966 
14940500    1963.2991   -713.60758    299508.71     15.25818 
14941000    1981.0123    -703.5242    307983.28    15.090632 
14941500    1940.6095   -721.44254    302530.54    15.234471 
14942000    2054.5695   -653.51659    306459.78    14.721521 
14942500    1863.9271   -644.87422    289153.32     14.70429 
14943000    1940.0688   -654.19036    291155.14    14.717385 
14943500    2093.6039   -643.66694    315194.82    14.626613 
14944000    2014.9452   -650.46982       302086    14.730577 
14944500    2115.0499   -641.36046    305484.22    14.760579 
14945000    2076.5756   -628.51617    306059.85    14.689998 
14945500    1807.8883   -647.56789    290587.08    14.836196 
14946000     2091.564   -669.23539    296032.74    14.896016 
14946500     1999.894   -695.98833    297268.82    15.147165 
14947000    1912.8878   -691.14543    302293.01    15.103201 
14947500    2032.6371   -670.05959    299589.05     14.92713 
14948000    2120.9841   -652.64331    294592.36    14.797339 
14948500    2012.6556   -645.38436    308437.07    14.667068 
14949000    2031.5321   -637.49272    322292.97    14.541607 
14949500    1953.2141   -732.21041    298567.42    15.214038 
14950000     2254.351   -726.14154    299331.65    15.234336 
14950500    2007.1106   -704.27598    300267.61      15.2177 
14951000    1910.3438   -697.11659    301258.51    15.125736 
14951500    1953.1313   -700.86503    291686.21    15.099637 
14952000    2031.8306   -640.92279    314321.31    14.655947 
14952500    2011.2852   -656.04548    289926.02    14.779244 
14953000    1911.7196   -640.49372    307974.75    14.712484 
14953500    2038.8291    -640.2576    299703.63    14.719464 
14954000    2075.6731   -610.09598    309531.59    14.489238 
14954500     1891.295   -626.99483    305002.53    14.610509 
14955000    1910.3019   -616.03822     298296.4    14.593935 
14955500    2155.2995   -652.41127    297099.09    14.691628 
14956000    1948.0819   -668.86675    297551.28    14.791348 
14956500    1972.4864   -642.20469    303199.87    14.702048 
14957000    2058.4757   -643.90226     299519.8    14.708791 
14957500    2065.1398   -653.56451    307558.81    14.706339 
14958000    2164.2263   -669.56296    302673.19    14.754209 
14958500    1873.3267   -742.53863    307935.89    15.324515 
14959000    1813.1471    -707.6686     305507.4    15.001692 
14959500    2054.3924   -705.14299    306451.75    15.027511 
14960000    2001.2609   -721.54111    281759.75    15.052202 
14960500      1965.32   -700.75333    310811.18    14.871062 
14961000    1902.9299   -707.73688    281740.59    14.940651 
14961500    1971.8402   -721.29456    285536.14     15.04244 
14962000    1961.5773   -696.77106    310428.71    14.862154 
14962500    2055.6641   -696.74976    318288.14    14.846043 
14963000    2153.3669   -708.35695    302600.18     14.98873 
14963500    1998.4097   -712.40908    306319.93    14.910481 
14964000    2015.6697   -671.43244    294488.81    14.709609 
14964500    1808.4251   -661.26846    312664.19    14.658338 
14965000     1805.291   -739.19886    287662.98    15.229175 
14965500    1820.9571   -722.02635    289173.62    15.173655 
14966000    1983.2764    -714.2754     298865.5    15.063291 
14966500    1929.4505   -723.41779    299231.24    15.208723 
14967000    2120.8852   -754.95366    302350.85    15.361181 
14967500    1996.0839   -750.66023    303058.47    15.426831 
14968000    1987.0942   -658.70778    310379.69    14.680182 
14968500    1960.3265   -748.48814    304800.21    15.287152 
14969000    2012.9422   -719.13672    313647.07    14.971733 
14969500    2065.0102   -730.65653    298942.57    15.124686 
14970000    1919.8549   -694.99957    313844.93    14.872997 
14970500    2002.5047   -739.66488    301207.02    15.182949 
14971000    2014.0816   -732.13818    297913.39    15.132581 
14971500    2113.0331    -744.7776    312168.32     15.27787 
14972000    1859.1051   -756.43724    294757.49    15.452521 
14972500    1913.5277    -670.6445    294438.58     14.80982 
14973000    1917.1513   -635.22409    308157.51    14.555781 
14973500    1986.7336    -658.0997    297697.43    14.788059 
14974000    2000.8093    -668.8624    287062.16    14.890956 
14974500    1950.0592   -726.43928    293422.31     15.21588 
14975000     2148.957   -745.72109    298023.09    15.383136 
14975500    1865.1256   -737.97403    305507.05    15.412593 
14976000    2107.3194   -749.04167    300264.61    15.561421 
14976500     2073.397   -734.18334    285135.27     15.33552 
14977000    1990.9466   -701.11337    298924.98    15.172043 
14977500    1895.1137   -696.77845    307566.81    15.014341 
14978000    2011.4738   -656.11024    299685.74    14.742939 
14978500    2084.6767   -715.29131     284046.8     15.21482 
14979000    1990.1067   -598.05686    313056.95    14.482814 
14979500    2044.3326   -709.71261    298495.72    15.102545 
14980000    2020.1486   -666.95654    294927.25    14.848946 
14980500     2160.468   -697.28622    300012.77    14.977976 
14981000     1930.253   -711.40831    303405.99    15.099026 
14981500    1909.5626   -719.73764    295229.64    15.188377 
14982000    1870.7449   -643.31958     313204.7    14.694477 
14982500    1874.6814   -648.29021    311339.63    14.675209 
14983000    1995.2663   -755.03527    295454.81     15.53338 
14983500     1979.616   -747.53896    301836.67    15.347467 
14984000    1861.0446   -745.25184    307805.02    15.346657 
14984500    1866.7172   -747.86106    299165.59    15.357218 
14985000    2105.8785    -680.7072    302061.83    14.869512 
14985500    2180.3767    -683.6169    292507.03    14.830602 
14986000    2074.0045   -719.77021    307164.54    15.059828 
14986500    1897.1833   -709.73237    289022.08    15.078341 
14987000     2127.946   -711.32779    315579.81    14.952074 
14987500    1947.9626    -704.9802    290114.56    14.944456 
14988000    1779.9667   -663.83113    290692.46    14.726864 
14988500    2025.9301   -636.49365    309657.95      14.6186 
14989000    1980.1348   -654.18314    299801.25    14.765353 
14989500    2036.9046   -724.20155    302722.99    15.156709 
14990000    2032.5301   -739.55607     305661.3    15.289206 
14990500    1945.3195   -755.35713    296972.99    15.457759 
14991000    1910.8453   -734.38864    303985.68    15.233765 
14991500     1859.663   -710.52523    299769.73    15.079185 
14992000    2039.6901   -687.40817    302205.43    14.857673 
14992500    1840.7512   -706.33861    300362.26    14.989293 
14993000    1944.0836   -713.76214    291709.68    14.993416 
14993500    1977.8302    -691.4293    292616.68     14.89488 
14994000    1939.2433   -711.16959    300598.98    15.009676 
14994500    2011.9902    -716.0422    308912.69        15.04 
14995000    2038.8042    -683.2441    298992.99    14.759506 
14995500    2004.3606   -703.94397    309820.89    14.895198 
14996000    2209.6379   -747.42952    285841.58     15.27817 
14996500    1997.6911   -720.86114    303320.46    15.031785 
14997000    1948.4857   -696.11631    310715.71    14.851007 
14997500    1980.4226   -694.20399    297090.69    14.863936 
14998000    2040.6372   -684.06015     292521.9    14.834629 
14998500    2087.5642   -676.42057    282540.84    14.793707 
14999000    1922.1225   -656.16737    295886.45    14.789169 
14999500    2044.3945   -653.40312    306086.51    14.737155 
15000000    1782.4885   -657.98936     291787.1    14.755195 
Loop time of 74489.1 on 6 procs for 15000000 steps with 250 atoms

Performance: 34.797 ns/day, 0.690 hours/ns, 201.372 timesteps/s
99.0% CPU use with 6 MPI tasks x no OpenMP threads

MPI task timing breakdown:
Section |  min time  |  avg time  |  max time  |%varavg| %total
---------------------------------------------------------------
Pair    | 3725.4     | 3852.3     | 3968.1     | 135.1 |  5.17
Neigh   | 107.74     | 108.37     | 108.8      |   4.0 |  0.15
Comm    | 871.69     | 995.39     | 1131.3     | 282.4 |  1.34
Output  | 778.57     | 778.59     | 778.68     |   0.1 |  1.05
Modify  | 68688      | 68698      | 68710      |   2.6 | 92.23
Other   |            | 56.21      |            |       |  0.08

Nlocal:    41.6667 ave 43 max 40 min
Histogram: 1 0 0 1 0 0 3 0 0 1
Nghost:    1218 ave 1227 max 1208 min
Histogram: 1 0 1 0 1 1 0 0 1 1
Neighs:    3765.17 ave 3855 max 3705 min
Histogram: 2 0 0 2 0 0 0 1 0 1

Total # of neighbors = 22591
Ave neighs/atom = 90.364
Neighbor list builds = 755715
Dangerous builds = 0

write_data	data.final.${p_id}
write_data	data.final.1
Total wall time: 20:41:34
