LAMMPS (8 Feb 2019)
Processor partition = 2
echo both

include		in.partitions
variable p_id world   0 1 2 3 4 5
include		in.temp
variable	temperature equal 2000.
variable	tempDamp equal 0.1 # approx 0.1 ps
include		in.pressure
variable	pressure equal 300000.
variable	pressureDamp equal 1.0
include 	in.seed
variable	seed world 74581 93734 128321 21934 495716 871038
units		metal
include		in.box
read_data	data.equil.${p_id}
read_data	data.equil.2
  orthogonal box = (-0.102744 -0.102744 -0.102744) to (15.1027 15.1027 15.1027)
  1 by 2 by 3 MPI processor grid
  reading atoms ...
  250 atoms
  reading velocities ...
  250 velocities

variable 	mass equal 26.981539
mass            1 ${mass}
mass            1 26.981539
include 	in.setup
variable	out_freq equal 500
variable	out_freq2 equal 500

neigh_modify    delay 10 every 1
include		in.al
### Argon Potential Parameters ###
pair_style 	eam/alloy
pair_coeff 	* * Al99.eam.alloy Al

timestep	0.002 # According to Frenkel and Smit is 0.001

thermo          ${out_freq}
thermo          500
thermo_style 	custom step temp pe press lx


restart 	${out_freq} Restart.lmp.${p_id} Restart2.lmp.${p_id}
restart 	500 Restart.lmp.${p_id} Restart2.lmp.${p_id}
restart 	500 Restart.lmp.2 Restart2.lmp.${p_id}
restart 	500 Restart.lmp.2 Restart2.lmp.2



# NPT

include		in.dump
dump            myDump all atom ${out_freq2} dump.al.${p_id}
dump            myDump all atom 500 dump.al.${p_id}
dump            myDump all atom 500 dump.al.2
dump            myDcdDump all dcd ${out_freq2} out.${p_id}.dcd
dump            myDcdDump all dcd 500 out.${p_id}.dcd
dump            myDcdDump all dcd 500 out.2.dcd
dump_modify	myDump append yes
dump_modify     myDcdDump append yes


timer 		timeout 23:50:00 every 1000
New timer settings: style=normal  mode=nosync  timeout=23:50:00

fix             1 all plumed plumedfile plumed.start.dat outfile plumed.out.${p_id}
fix             1 all plumed plumedfile plumed.start.dat outfile plumed.out.2
fix             2 all nph iso ${pressure} ${pressure} ${pressureDamp}
fix             2 all nph iso 300000 ${pressure} ${pressureDamp}
fix             2 all nph iso 300000 300000 ${pressureDamp}
fix             2 all nph iso 300000 300000 1
fix             3 all temp/csvr ${temperature} ${temperature} ${tempDamp} ${seed}
fix             3 all temp/csvr 2000 ${temperature} ${tempDamp} ${seed}
fix             3 all temp/csvr 2000 2000 ${tempDamp} ${seed}
fix             3 all temp/csvr 2000 2000 0.1 ${seed}
fix             3 all temp/csvr 2000 2000 0.1 128321
fix		4 all momentum 10000 linear 1 1 1 angular

run             15000000 upto # 30 ns
Neighbor list info ...
  update every 1 steps, delay 10 steps, check yes
  max neighbors/atom: 2000, page size: 100000
  master list distance cutoff = 8.28721
  ghost atom cutoff = 8.28721
  binsize = 4.1436, bins = 4 4 4
  1 neighbor lists, perpetual/occasional/extra = 1 0 0
  (1) pair eam/alloy, perpetual
      attributes: half, newton on
      pair build: half/bin/atomonly/newton
      stencil: half/bin/3d/newton
      bin: standard
Per MPI rank memory allocation (min/avg/max) = 4.003 | 4.003 | 4.004 Mbytes
Step Temp PotEng Press Lx 
       0    1782.0925   -696.55799     287606.5    15.205488 
     500    2015.6806    -677.1406    320562.12    15.128738 
    1000    2043.8899   -676.44801    321609.03    15.068659 
    1500    1821.1723   -681.66312    308300.78    15.103939 
    2000    2207.3683   -697.58276    299449.77    15.188073 
    2500    2003.6568   -694.62485    299713.75    15.157926 
    3000     2096.697   -701.84149    296259.98    15.158513 
    3500    2206.6295    -696.7092    310943.61    15.106889 
    4000    1757.8486   -690.17562    302518.93    15.145403 
    4500    1983.9318   -675.73469    309800.44    15.083471 
    5000    2105.2669    -696.7248    302047.87    15.199206 
    5500    1951.8861   -700.42244    299545.28    15.108416 
    6000     2160.141   -675.17511    308962.34     15.02743 
    6500    1978.9201   -683.72705    309935.12    15.045211 
    7000    2085.3452   -694.26735     306955.8    15.074612 
    7500    2190.2012   -695.77164    306242.49    15.096196 
    8000    2045.2841   -695.86764    298435.53    15.095012 
    8500    2043.4771   -712.12482    297517.88    15.184648 
    9000    1995.5429   -712.30919     309535.3    15.204222 
    9500    1999.8158   -721.02545    287607.72    15.296728 
   10000    1850.5428   -709.56363    304883.89    15.211063 
   10500    2138.0966   -715.07299    300673.56    15.285802 
   11000    1925.4334   -723.62565    289806.23    15.371672 
   11500    1990.6428   -711.76103    303669.58    15.259693 
   12000    2001.6303   -705.66095    287599.83    15.188894 
   12500    2099.5284   -688.01734     298672.4    15.087983 
   13000    2019.8948   -675.36605    299132.02    14.984219 
   13500    2050.9308   -671.89319    290973.35    15.039286 
   14000    2014.3251   -665.60723    293841.08    15.004414 
   14500    2037.8667   -668.82134    302955.44    14.936713 
   15000    2020.8023    -665.3214    303849.04    14.967805 
   15500    1803.4223   -673.94293    297845.43    14.961945 
   16000    1972.8328   -676.21763    290323.75    14.989864 
   16500    2151.4918   -670.58652    297983.77    14.950374 
   17000    1946.2618   -667.24091    295513.83    14.965903 
   17500    1928.2954   -653.18925    296190.92    14.983862 
   18000    1905.1133   -662.04961    302519.32    14.900955 
   18500    2070.5478   -654.44292    297644.39    14.967257 
   19000    2076.4112   -663.22894    295590.11    14.994749 
   19500    2030.2481   -651.71696    312932.23    14.896268 
   20000    2167.1922   -648.14708    299460.81    14.965796 
   20500    2133.8597   -662.04226    290710.78    14.994762 
   21000    1931.1335   -655.82278    291915.32    14.981406 
   21500    2136.1921   -640.25752    317619.65    14.908244 
   22000    2037.3571   -654.64778    283827.37    15.063081 
   22500    1801.3034   -647.94424    305220.01    14.947955 
   23000    2093.1681   -645.73664     298263.5    15.035069 
   23500    2032.2057   -662.38563     286992.4    15.014794 
   24000    1923.8243   -655.14811     289706.2    15.013675 
   24500    1839.4024   -642.28953    322676.13    14.894952 
   25000     2089.855   -654.99086    292660.98     14.99227 
   25500    1986.9844   -651.48575    301192.25    14.956257 
   26000    1974.6582   -710.80102    313900.31    15.363973 
   26500    2212.2903   -721.83808       310773    15.413327 
   27000    2031.1851   -723.69165     296458.2    15.443689 
   27500    1885.6092   -725.96948    285527.58    15.468657 
   28000     2038.222   -718.24124    301091.63    15.442124 
   28500    2043.4141   -716.72093    311674.64    15.407997 
   29000    2041.8656   -727.25099    288136.24    15.447461 
   29500    1974.2591    -728.6088    292279.04    15.441566 
   30000    1926.7119   -717.67359    309948.07    15.409806 
   30500    1987.2052   -722.78675    305577.86     15.42454 
   31000    1980.1395   -731.37009    273863.91    15.519792 
   31500    1990.1811   -717.79624    315567.17    15.397821 
   32000    2093.4797   -728.09816    305041.88    15.400604 
   32500    2019.7433   -721.70717    306997.81     15.38956 
   33000    2050.0766   -725.58454    295531.19    15.438529 
   33500    1929.2087   -717.86936     315758.1    15.369441 
   34000    2038.6831   -725.21871    295490.46    15.424665 
   34500    2136.5702   -726.37403    281785.44    15.487243 
   35000    1948.6802   -721.70071    309850.22    15.365463 
   35500    2007.2249   -720.21139    306148.66    15.359775 
   36000    2066.4337   -728.15291    301741.12    15.423149 
   36500    2047.2732   -729.67366    296269.63    15.423597 
   37000    1920.3001   -720.25331    299078.16    15.423738 
   37500    2061.3121   -730.06183    301959.25    15.356908 
   38000    1950.9272   -722.04807    307859.56    15.330268 
   38500    1966.0945    -722.3183     306703.8    15.328574 
   39000    2054.2572     -719.769    296874.49    15.390256 
   39500    2039.8428   -721.58481     301090.1    15.342382 
   40000    1870.6074   -716.17435    299211.11    15.350861 
   40500    2040.3089   -727.46075    294410.09    15.431477 
   41000    1990.0016   -725.09005    298335.54     15.40037 
   41500    2032.7288   -702.98162    304531.56    15.215741 
   42000    1944.5093   -646.52067    304302.41    14.718344 
   42500    1895.8538   -631.14749    312914.53     14.72698 
   43000    1988.4423   -636.85078    308952.92    14.641512 
   43500    2097.3684   -644.68372    291998.03    14.565827 
   44000    2139.9699    -639.9377    304379.09    14.557134 
   44500    1968.9009     -653.083    274546.03    14.637216 
   45000     2066.809   -647.81606    291019.06    14.563207 
   45500    1996.5376   -645.99828    293382.61    14.566124 
   46000     2018.813   -649.73361    287180.64    14.567073 
   46500    2021.5943   -651.33197    290139.42    14.548364 
   47000    1933.6602   -647.46459    298513.77    14.534007 
   47500    2100.8848   -651.50375    287880.31    14.541919 
   48000    1768.5984   -640.32737    305902.84    14.510746 
   48500    2035.7987   -648.69557    284754.13     14.57443 
   49000    1986.7985   -649.49916    302494.03     14.51171 
   49500    1971.8695   -643.49223    317006.94    14.505086 
   50000    2263.5241   -648.82877    296263.08    14.523899 
   50500    1929.9665   -655.25256    275506.13    14.620387 
   51000    2056.1947   -643.53728    300171.05    14.617317 
   51500    2026.0787    -685.1673    300440.43    14.955727 
   52000    1849.5041   -629.74765    313404.14    14.642964 
   52500    2154.3001   -644.79607    296653.31    14.680723 
   53000    2038.3186   -636.32264    304503.73    14.627606 
   53500    1939.8543   -641.07514    289887.14    14.626567 
   54000    1893.3528   -632.92619     313751.2    14.630024 
   54500    1852.2748   -629.83711    334874.29    14.546802 
   55000    1988.3595   -644.66772    288271.76    14.709786 
   55500    2045.5395    -646.0586    296377.64    14.712235 
   56000    2012.0568   -700.11164    301531.84    15.020619 
   56500    2033.7499   -708.58426    300905.67    15.043704 
   57000    2255.8076   -728.11664     302158.5    15.136052 
   57500      2029.47    -723.7444    299082.49    14.952598 
   58000    2039.5097   -719.34062    306938.92    14.941869 
   58500    1874.2501   -722.80593    301917.98    14.928038 
   59000    1878.3845   -727.32403    293649.17    15.038773 
   59500    2146.2526   -722.34052    301975.66    14.961766 
   60000    2125.2383   -706.23101    311900.06    14.863822 
   60500    1978.0532   -710.10145    308753.32    14.926146 
   61000    1912.6463   -718.87721    299013.74    14.958268 
   61500    2049.4611   -715.46982    308254.48    14.903607 
   62000    1990.6326   -720.03094    298277.73    14.993716 
   62500    2017.1999   -718.99111    300852.98    14.925726 
   63000    1979.2354   -702.80431    314126.83    14.790501 
   63500     1979.757   -705.13122    301816.23    15.045517 
   64000     2029.201   -688.07439    309067.71    14.986017 
   64500    2112.6373   -655.31556    298125.73    14.820229 
   65000    2008.1866   -714.89475    297326.53    15.156412 
   65500    1791.0626   -701.83715    301443.42    15.063891 
   66000    2067.9267   -696.58591    296311.48    15.063349 
   66500    2005.3379   -744.50449    292362.44       15.436 
   67000    1971.5255   -698.57608    292828.83    15.056334 
   67500    1920.1231   -681.77584    295631.19    15.064484 
   68000    1976.8009   -672.17585    306806.55    14.978676 
   68500    2007.0151   -637.80289    309155.07    14.773758 
   69000      1997.61   -698.46656    297249.14    15.150854 
   69500     2023.661   -731.36724    297577.09    15.393337 
   70000    1971.9783    -728.6508    299873.05    15.440203 
   70500    1906.4941   -731.39418    298860.31    15.444394 
   71000    1868.1398   -733.81769    297382.81    15.435208 
   71500    2084.3525   -739.00159    297344.19    15.467415 
   72000    2032.6459   -735.41135    310965.85    15.405164 
   72500     1980.003   -630.10275    308400.29    14.725212 
   73000    2056.3674   -645.75249    293849.66    14.834091 
   73500    1965.5345   -690.23896     292628.9    15.131765 
   74000      1856.76   -643.10943    291591.54    14.852338 
   74500    2022.5835   -728.14167    302480.44    15.425994 
   75000    2018.4718   -712.78992     304693.8    15.337492 
   75500    1898.6676   -682.46177    304945.07    15.139986 
   76000    1876.2344   -661.38566    304166.79    15.154909 
   76500    2212.5075   -655.10857    308027.55    15.028818 
   77000    2083.7065   -674.37886    308490.19    14.999058 
   77500    2003.7768   -680.00061    301542.56    15.072703 
   78000    1916.8588   -666.81908    307719.98    15.053715 
   78500    2002.9565   -722.31583    307310.23    15.423262 
   79000    1999.7365   -720.29375     293305.4     15.47908 
   79500    1836.2929   -630.13543    293689.59    14.795037 
   80000    2142.3298   -618.38462    309284.58    14.831747 
   80500    1947.6772    -625.9745    303911.38    14.748997 
   81000     1906.454   -694.58188    290633.85    15.169924 
   81500    2125.3034   -740.31102    300852.27    15.461415 
   82000    1847.9045   -726.13295    294147.52     15.46668 
   82500    1993.1228   -729.12839    295882.51    15.490578 
   83000    1971.1467   -735.33399     299667.6    15.441794 
   83500    2106.9535   -741.86653    301330.43    15.443209 
   84000    2084.7518    -741.6236    288307.54    15.420911 
   84500    2004.3454   -739.35502    312727.02    15.278518 
   85000    1904.7214   -734.93549    312287.31    15.335596 
   85500    2095.1693   -736.88161    303417.02    15.457239 
   86000     1938.952    -744.8656    299180.52    15.452354 
   86500    2156.6654   -736.99091    301146.54    15.450321 
   87000    2117.3936   -742.26206    295688.56     15.41298 
   87500    2090.4558    -737.3753    315442.42     15.40227 
   88000     2074.107   -737.32782    305940.74    15.412076 
   88500    2084.7437   -724.07823    311436.65    15.339932 
   89000    2166.3663    -735.6069    305685.49    15.463451 
   89500    2162.5482   -738.38744    303939.46    15.465882 
   90000    1872.1778   -735.34727    298923.76    15.471452 
   90500     1925.557   -727.58051    306886.02    15.339378 
   91000    1827.1578   -709.89879     295658.6    15.203504 
   91500       2080.7    -618.6959    311132.62    14.547125 
   92000    1944.9477   -625.28012    298547.22    14.582476 
   92500    2009.3381   -623.12112     305515.1    14.621501 
   93000    1985.5298   -631.77647    291599.96    14.761211 
   93500    2055.4418   -677.53049    298008.68    15.122358 
   94000    1902.0505   -678.53687     297997.4    15.097361 
   94500    2038.5665   -627.22749    304385.89    14.681297 
   95000    1941.1114   -629.26765    299796.93    14.748336 
   95500    1927.0488   -635.60129     280476.8    14.700729 
   96000    1909.4474   -624.83634    304949.66    14.568075 
   96500    1979.0796   -637.36304    293090.12     14.67582 
   97000    2003.2546    -617.2438    321118.75    14.516088 
   97500    1927.6686   -625.92206    284092.79     14.63587 
   98000    1952.3434   -616.03695    306115.02    14.566291 
   98500     1897.184   -617.72914    319068.81    14.514731 
   99000    1850.3952   -620.44835    313692.49    14.498353 
   99500    2041.5269    -612.9397    326515.01    14.502397 
  100000     1867.645   -616.12177    317864.26    14.502544 
  100500    1956.6534   -620.84242    299362.44    14.523148 
  101000    2023.7993   -628.71168    292126.77    14.588451 
  101500    1928.7402   -629.11431    290571.38    14.583432 
  102000    2172.8925   -625.59161    314026.16    14.650465 
  102500    1791.6482   -615.07304    315920.29    14.674122 
  103000    1907.4175   -622.27454    314135.24    14.670577 
  103500    1968.8974   -704.86102    296687.69    15.154533 
  104000    2072.6332   -632.62452    292097.66    14.748416 
  104500    2069.9124   -618.86952    300219.67    14.676518 
  105000    1941.8608   -618.96718    309490.83     14.65177 
  105500    1863.1854   -634.35648    289012.62    14.792984 
  106000    2251.2354   -642.85997    304159.81    14.904415 
  106500    1953.1032   -628.42067    290224.65     14.82277 
  107000     2057.145   -613.82431    304684.64    14.736748 
  107500     2053.489   -613.68527    309111.61    14.696593 
  108000    1950.0914   -632.46886    288434.56    14.858184 
  108500    2068.1561   -627.68325    299094.52    14.812177 
  109000    2163.6394   -634.40301    300374.76    14.684603 
  109500    1931.9946   -628.98712    293937.38    14.682277 
  110000     1871.015   -617.58044     305841.7    14.574707 
  110500    2107.1115   -691.72992    297636.29    15.120772 
  111000    2007.1556   -687.79738    304687.78    15.042377 
  111500    1964.1039   -695.10751    295923.87    15.109236 
  112000    2175.1678   -734.59884    290833.32    15.508095 
  112500    2036.4601   -737.90811    292639.14    15.565438 
  113000    1990.3761    -741.0737    303943.45    15.522763 
  113500    2033.5922   -729.58311    305435.36    15.497513 
  114000    1967.2624    -725.5277    308004.49    15.392442 
  114500    1747.8658   -654.74684    302970.34    14.908424 
  115000    1885.2929   -631.45016     289360.5    14.776011 
  115500    1990.8205   -612.23492    305848.78    14.723047 
  116000    2003.1635    -623.2379    300793.32    14.763103 
  116500    2021.3413   -623.39052    303865.32     14.84458 
  117000    2110.1954   -630.37547    298636.29     14.82911 
  117500    2034.1104   -731.25823    298036.34    15.539202 
  118000    2056.5838   -742.63765    295088.27    15.541672 
  118500    1921.8397   -733.05781    301761.36    15.547431 
  119000    2056.3326   -735.49653    302117.87    15.514286 
  119500    2076.3379   -734.13483    295015.04    15.600726 
  120000    1951.5218   -728.60478    303572.52    15.447436 
  120500    2037.6202   -735.02972    303795.71    15.588146 
  121000    2038.5727   -738.80668    306103.47    15.643317 
  121500    1933.5302   -738.26563    310291.82    15.574476 
  122000    2101.9316   -738.28307    294679.66    15.683544 
  122500    1910.3259   -738.90842    293591.31    15.674806 
  123000    2218.0785   -745.72082    306744.33    15.633573 
  123500     2093.085   -740.68545    304656.57    15.648062 
  124000    2052.1971   -729.10796    307424.96    15.643651 
  124500    1932.4192    -729.5301    283855.58    15.718921 
  125000    1880.3596    -732.6567    316970.69    15.589478 
  125500    2125.1057   -741.45219    311597.76     15.61181 
  126000    1992.8228   -738.83071    310272.79    15.637278 
  126500    2022.3437   -738.97245    302445.26    15.666768 
  127000    2224.6839   -740.31625     304453.3    15.669459 
  127500    1999.8961   -745.35821       312770    15.615119 
  128000    2104.1615   -740.35733    314434.75    15.609631 
  128500    2049.4171   -739.32589    304671.76    15.669931 
  129000    2106.4115   -739.73859     303535.2    15.649764 
  129500    1914.3944   -740.99041    308263.48    15.625788 
  130000     2069.595   -733.53569    294487.78    15.695101 
  130500    2099.7335   -731.77001    311649.15    15.626075 
  131000    2030.8753   -745.00426    282161.83     15.71128 
  131500    2130.3431   -738.58279    313116.68    15.610841 
  132000    1967.1139   -707.25964    295644.41    15.367515 
  132500    2163.4001   -684.36573    296770.51    15.287373 
  133000    1994.5055   -679.81193    298387.69    15.311013 
  133500    1965.7437    -661.8679    310137.99     15.08342 
  134000    2062.6622   -660.92331    306686.05    15.056683 
  134500    2175.8639   -676.97122    306315.27    15.103072 
  135000    1845.6589   -657.90901    306985.04    15.074832 
  135500    2058.6504   -680.80184    302101.96    14.997664 
  136000    1947.3936   -672.46249    305254.09     14.92009 
  136500    2080.0658   -679.09402    304781.81    14.949146 
  137000     1947.718   -689.70617    294437.11    15.016549 
  137500    1981.5619   -666.60412    303702.86    14.946228 
  138000    1995.9873   -672.59056       305168    14.970038 
  138500     1979.882   -670.15943    303704.17    14.958406 
  139000    2010.8942   -720.02703    301706.82     15.27248 
  139500    1844.8672   -721.88514     300353.3    15.276295 
  140000    1811.7379    -701.3763    272310.38    15.058198 
  140500    1992.3765   -681.62565    309410.64    14.796613 
  141000    2033.6798   -699.93763    296758.07    15.070799 
  141500    1889.0009   -705.92392    296475.42    15.080043 
  142000     2070.736   -693.15828    299146.59    14.975862 
  142500    1882.0896   -681.53289    310012.15    14.923019 
  143000    1957.2749   -674.37466    308170.81    14.820568 
  143500     2009.117   -681.59041    302986.82    15.005746 
  144000    2039.8544    -685.8713    301622.76    15.008092 
  144500    1847.9607   -697.66816     292935.7    15.041611 
  145000    1945.4637   -711.33238    298996.92    15.184349 
  145500    2178.2265   -616.75506    301324.91    14.588649 
  146000    2145.3202   -615.65836    300614.18    14.667048 
  146500    2118.1491   -616.58665    298406.03    14.530228 
  147000    2172.5111   -612.70333     302208.6    14.510649 
  147500     2101.904   -616.36482    289356.18    14.567245 
  148000    2072.9637   -621.73559    275629.98    14.461857 
  148500    2076.5983   -613.14748    301062.92    14.379773 
  149000    1991.9948   -629.03551    273147.37    14.656549 
  149500    2150.2746   -614.84128    284058.89    14.405921 
  150000    2061.9244   -614.44837    334083.85    14.321141 
  150500     2091.599   -609.46092    302068.49    14.397983 
  151000    1876.0714   -613.63385    283116.97    14.404346 
  151500    1929.0995   -613.26431    293636.83    14.383861 
  152000      2235.77    -613.5316     335355.5    14.323101 
  152500    1911.0536   -604.71956    361118.96    14.310692 
  153000    1825.9175    -609.6604    303031.89    14.418596 
  153500    1879.3109   -619.33889    282558.96      14.5716 
  154000    2024.6357   -620.50807    291977.28    14.569075 
  154500    2016.1484   -618.46209    304829.81    14.643464 
  155000    2055.4823   -618.49041    295533.33    14.643369 
  155500     2023.644   -633.44308     292877.2    14.703443 
  156000    1907.9367   -612.99118    306830.92    14.619855 
  156500    1967.0866   -623.29869    296741.53    14.698322 
  157000     1832.754   -634.46708    293038.73    14.838165 
  157500    1884.5383   -623.02208    289382.73    14.762948 
  158000     2009.883   -614.12613    304921.66    14.675081 
  158500    1930.2672   -632.56559    295434.03    14.687153 
  159000    2087.4535    -615.6956    294845.32    14.680864 
  159500    1966.8822   -613.32421    305237.21    14.653781 
  160000    2142.5186   -671.58829    305195.86    14.912788 
  160500    2133.0761   -713.08996    297906.79     15.40808 
  161000    2086.6412   -743.64414    297909.12    15.517705 
  161500    1921.1121   -746.68168    310487.02    15.415589 
  162000    2180.4869   -743.57725    305196.89    15.362591 
  162500    2072.6862   -751.24191    298232.28    15.366061 
  163000    2145.2999    -750.9442    282167.12    15.452071 
  163500    2189.5825   -749.97362    282689.23    15.418151 
  164000    2016.1257   -745.84139    302119.87    15.382538 
  164500    2076.7902   -752.67827    303734.51    15.434138 
  165000    2185.4753   -762.53935    294735.65    15.421109 
  165500     2066.095   -738.81075    305366.76    15.303727 
  166000    1955.0345   -739.61386    293649.95    15.326868 
  166500    2170.2167   -707.56607    302588.45    15.171565 
  167000    1971.5293   -741.29176    308729.12    15.411814 
  167500    1920.1531   -748.39336     304794.3     15.47257 
  168000    1970.1189   -723.97609    303113.58    15.298103 
  168500    2178.7252    -738.9216    308659.29    15.401484 
  169000    1988.2384   -747.15934    291370.68    15.525829 
  169500    1949.5302   -749.12949    292784.29    15.455674 
  170000     1934.922   -745.35632    294364.26    15.359146 
  170500    2175.5172   -743.12838    295665.47    15.345175 
  171000    1946.0758   -742.19854    286549.57    15.387082 
  171500    1869.5944   -738.84971    309215.23    15.335438 
  172000    2174.1787   -695.29386    300079.65    14.869502 
  172500    1915.4408   -687.53961    307815.27    14.779156 
  173000    1962.0684   -688.34978       306448    14.739388 
  173500    2004.7455   -684.45369       298193     14.67642 
  174000    1911.3942   -684.73965    293304.75    14.745829 
  174500    1991.1896    -687.1497     300965.1       14.789 
  175000    2046.7599   -710.20537    294851.67    15.023468 
  175500    1949.1182   -613.26815    303425.08    14.549269 
  176000    1953.3493   -616.27842    302986.63    14.523175 
  176500    2000.9186   -702.03448    289462.03    15.075321 
  177000    2022.3675   -690.53716    298913.62    14.838971 
  177500    2242.3665   -686.33581    303897.32    14.829235 
  178000    2070.4821   -682.68355    306853.05    14.660826 
  178500    2029.6928   -686.89187     305653.7     14.82191 
  179000    1895.1898   -749.71017    301126.33    15.354899 
  179500      1917.93   -679.36538    305639.47    14.848854 
  180000    1939.8586    -690.6335    298233.76    14.934939 
  180500    1968.2003   -691.49148    301339.06    14.917557 
  181000    2108.8662   -689.11801    296702.86    14.887594 
  181500    1910.7122   -651.15726    305660.07    14.829386 
  182000    2048.8084   -735.67502    303620.85    15.319944 
  182500     1953.005   -598.08285    318280.28    14.488611 
  183000    2101.3011   -706.89427    295880.59    15.043579 
  183500    1881.7589    -749.3071    296202.21    15.550969 
  184000    1956.1534   -721.71961    298020.04    15.250769 
  184500    2165.0113   -678.47664    313506.64    14.779881 
  185000    2059.9717   -681.56255    312747.71    14.749586 
  185500     1899.821   -695.59856    303553.32    14.832817 
  186000    2161.7178   -695.72974     313266.5     14.76566 
  186500    2009.0564   -692.45273    307048.25    14.841289 
  187000    2065.4889   -684.63502    296608.14    14.911179 
  187500    2098.6325   -691.13237    303296.24    14.795677 
  188000     2153.905   -689.35573    301557.18    14.800711 
  188500    1989.0818   -693.57588    296234.56    14.916183 
  189000    2094.3161    -680.1939    304475.89    14.830198 
  189500    1932.3155   -623.21832    311013.32    14.513805 
  190000    1723.2505   -697.00706    296354.88    14.799467 
  190500    1879.0603   -693.33491    310567.54    14.738919 
  191000    1976.1466   -696.18034    304526.87    14.839942 
  191500    1968.7445   -698.34565    301441.92    14.835323 
  192000    1969.1144   -698.23108    296252.09    14.857689 
  192500    1901.2236   -678.34893    301005.32    14.887085 
  193000     2150.604   -683.58961     311377.8    14.818604 
  193500    2129.7999   -722.90096    301223.89    15.182018 
  194000    1871.6612   -712.40009    302187.48    15.092841 
  194500    1913.7312   -702.20982    298489.13    15.005377 
  195000    2025.4208   -755.29861    286205.15    15.534944 
  195500    2034.2325   -742.83514    299061.22    15.408762 
  196000    1880.1973   -733.89008    300610.39    15.268778 
  196500    2018.4542   -727.20687     300175.7    15.168984 
  197000    2081.8474    -751.3244    301242.63    15.536023 
  197500    2222.9431   -675.62096    309690.52    14.720101 
  198000    1876.7058   -715.01391    299669.67    15.013753 
  198500    2068.7531   -695.42428    293682.38    14.888771 
  199000    1951.1384   -682.14146    300921.61    14.835546 
  199500    2017.8313   -699.80807    297771.29    14.905865 
  200000    1945.8084   -680.91961     293140.6    14.788766 
  200500    2013.8103   -678.62081    302271.77    14.902601 
  201000    2138.8383   -719.34094    306928.43    15.166674 
  201500    1993.7942   -748.26095    304687.42    15.464074 
  202000    1902.4915   -743.85277    302804.77    15.502535 
  202500    2093.2994   -714.65329     301689.2    15.269666 
  203000    1906.4034   -614.15806     297579.6    14.740757 
  203500    1870.8378   -610.45943    299026.34    14.717954 
  204000    2264.5931   -632.67749    297001.06    14.730527 
  204500    2055.1945   -628.44554     295784.1    14.749672 
  205000    1942.2067   -618.96795    294353.32    14.715625 
  205500    1966.7631   -663.78402    298672.27    15.049697 
  206000    2126.4218   -712.06101     296539.4    15.334729 
  206500    1831.8721   -749.24706    297395.72    15.551983 
  207000    1777.6571   -694.29247    300761.29    15.138655 
  207500    1989.6623   -732.98999    296502.95    15.470184 
  208000    1966.8148   -646.34087    294892.51    14.830847 
  208500    2024.4982   -647.69763    303270.28    14.872475 
  209000    2114.9284   -642.64893    309389.34    14.977052 
  209500    2068.4927   -651.57574    299855.24    15.103035 
  210000    2017.5683   -675.25321    303500.76    15.261699 
  210500    2071.6873   -677.73284    304648.08    15.280093 
  211000    1938.4728   -652.84229    300355.95    15.123252 
  211500    2047.8244   -678.41337    306882.28    15.320523 
  212000    1971.4957   -669.68439    300698.98    15.298658 
  212500    2104.1841    -696.6363    302707.29    15.366416 
  213000    1864.9428   -683.55004    295334.57    15.406572 
  213500    2067.2978   -679.91442    306682.83     15.39259 
  214000    2070.4157   -697.04423    289220.52    15.503998 
  214500    2049.0815   -678.54773    296739.12    15.480029 
  215000    1997.1684   -688.65003    291791.49     15.47693 
  215500    2121.0047   -685.81597    304490.44    15.390762 
  216000    1962.6389   -690.83366    305565.36    15.403144 
  216500    2071.8103   -693.68426    303015.27    15.349988 
  217000      2037.15   -666.68597    297442.29    15.181462 
  217500    1849.2264   -610.58379    293284.67    14.808525 
  218000    2080.6555   -603.35147    289925.74    14.783261 
  218500    1947.1483   -593.36715     312409.2    14.656854 
  219000    2034.8155   -592.43669    322414.02    14.592658 
  219500    1942.3023   -634.28306     303319.3    14.890012 
  220000    1896.5042    -600.3319    295868.49     14.70039 
  220500    1904.9607   -606.67915    291978.44    14.746234 
  221000    2249.0909   -673.28354    300501.01    15.266653 
  221500    2019.5573   -640.56622    301986.02    15.022279 
  222000    1882.9424   -674.25172    294860.46    15.205338 
  222500    1989.6772   -593.64401    305990.56    14.643477 
  223000    1964.9105   -608.67367    304102.96    14.638513 
  223500    1969.1502   -616.09688    289647.28     14.76831 
  224000    2115.7393   -601.91408    291995.04    14.702664 
  224500    1920.2842   -605.56003    300125.82    14.709582 
  225000    1902.4154   -618.51742    289440.25    14.752155 
  225500    2004.1473   -625.49119    295622.69    14.753124 
  226000    2070.4827   -602.42581    295574.29    14.647178 
  226500    1908.7426   -603.62833    279125.39    14.745979 
  227000    2069.0199   -615.46614    291580.65    14.808066 
  227500    2009.7791   -589.84879    322366.34    14.585873 
  228000    2296.1531   -595.75855    310358.78    14.649105 
  228500    2127.3772   -595.94953    294718.47    14.630825 
  229000    2030.0142   -592.48826    303671.42    14.685416 
  229500    2107.0442    -596.7502    298431.75    14.732602 
  230000    1992.7492   -593.71032    299614.45    14.673525 
  230500    1821.5405   -601.33097    284584.01     14.70736 
  231000      1972.23   -597.36615    304259.77    14.702213 
  231500    2064.9438   -617.53377    294974.38     14.73689 
  232000    1853.7906   -587.47934     310422.9    14.646942 
  232500     2008.171   -589.77402    325068.18    14.612933 
  233000    2007.7007   -640.03883    300519.38    14.883381 
  233500    1925.7583   -662.64458    290688.77    15.099856 
  234000     2081.986    -613.4683    299043.07    14.774984 
  234500    1956.7317    -665.4165     295776.3    15.077559 
  235000    2053.9047   -658.96492    299517.86    14.997168 
  235500    1890.8102   -655.44571    299226.93    14.973422 
  236000    2080.8513   -738.37182    291717.51    15.542526 
  236500     1998.069   -745.85054    302335.39    15.578147 
  237000    1858.3758   -751.30998    275448.77    15.580988 
  237500    1957.0444   -669.10305    303865.55    14.880957 
  238000    2143.6126   -661.36257    304627.67    14.701655 
  238500    2021.9065   -652.11928    304257.99    14.677259 
  239000    2027.0048   -663.75039    301542.38    14.851565 
  239500    1814.1795   -714.46321    298866.66    15.198104 
  240000    2036.1852   -717.71659    300329.36    15.269108 
  240500    1841.5537   -673.45814    300662.07    14.913291 
  241000     2024.432   -641.78745    294143.65     14.73872 
  241500    1934.2007   -715.41739    298961.37    15.344236 
  242000    1947.7964   -716.54711    304182.24    15.289213 
  242500    1876.1371   -667.87206    305262.05    14.892739 
  243000    1980.5752   -630.83132    293501.35    14.713943 
  243500    2198.7383    -698.7521    301949.97    15.196522 
  244000    1966.8435   -670.75338    299081.03    14.952337 
  244500    1786.6495   -725.76015    299930.38    15.150759 
  245000    1975.6244   -714.16804    299744.03    15.053871 
  245500    2021.6372    -702.8507    302525.42    15.010461 
  246000      2140.16   -742.73503    302195.92    15.288945 
  246500    1902.6818   -680.58057    295041.23    14.940883 
  247000    1902.6011   -703.98855    301061.94    15.191965 
  247500    1926.9097   -715.59526    296937.52    15.217391 
  248000    2050.5345   -673.45756    305164.83    14.824397 
  248500    1912.7231     -675.181     300573.8    14.855108 
  249000    2239.0596   -674.22726    296974.24    14.963664 
  249500    1972.2417   -695.29664    298705.72    14.989902 
  250000    2175.5663   -711.32358    303588.32    15.173197 
  250500    2036.5207   -645.97252    302730.53    14.698471 
  251000    1909.0474   -713.99299    297007.74    15.249187 
  251500    2032.6277   -607.75082    297154.87    14.485826 
  252000    1845.7415   -619.12842    296002.87    14.653696 
  252500    2076.0162   -608.73811    300046.32    14.636608 
  253000    1946.2201   -647.48721    303051.06    14.680303 
  253500    1924.3269   -659.29732    294479.71    14.710863 
  254000    2045.0112   -623.81971    312360.26    14.471377 
  254500    1842.6564   -727.88516    295704.32    15.168734 
  255000    2095.9263   -734.15559     298489.7    15.222912 
  255500    1960.5292   -711.67463    306417.94    15.071807 
  256000    2065.6415   -728.67031    294988.96    15.136345 
  256500     1894.528   -692.14771     305527.8    14.960791 
  257000    1891.4696   -718.21145    303333.28    14.993091 
  257500    1917.2948   -685.28599    303002.31    14.780857 
  258000    1978.0121   -732.73262    295472.93      15.2177 
  258500    1981.0943    -726.1209    300344.79    15.222582 
  259000    1888.9334   -722.27082    296610.79    15.243583 
  259500    2031.5952   -719.60715    298734.77    15.321182 
  260000    1973.0748    -670.2967    302004.36    14.884487 
  260500    2014.3317   -620.20034    292951.71    14.685206 
  261000    2019.4597   -610.26896    302082.64    14.630702 
  261500    1959.0641   -749.83952     304915.1    15.574648 
  262000    1762.4898   -730.40591    295560.68    15.397927 
  262500    2087.3683   -658.56377    301075.91    14.740647 
  263000    1953.8349   -681.33355    301274.05    14.657262 
  263500    2046.9741   -690.08906    287627.13    14.745204 
  264000    1694.9157   -687.15647     285501.4    14.754788 
  264500     2085.144   -686.11013    290968.84    14.649588 
  265000    2041.5839   -679.29883    298085.32    14.688933 
  265500    1970.5062   -680.59921    313157.45      14.6153 
  266000    1939.2914   -669.34531    314987.64    14.608138 
  266500    2113.1597   -672.71982    303019.73    14.691083 
  267000    1892.0488    -695.4154     295144.2    14.836821 
  267500    2032.7733   -761.61797    303651.76    15.431144 
  268000    2116.8316   -748.95051    292341.41    15.386085 
  268500    2081.1968   -719.81332    303842.66     15.08183 
  269000    2132.9698   -682.71357    301595.87    14.630688 
  269500    1975.3432   -672.63837    310337.47    14.660164 
  270000    2023.0424   -690.26255    287774.56    14.747591 
  270500    1787.0983   -683.31965    287294.43    14.725594 
  271000    1935.1696    -686.6205    291793.76    14.743417 
  271500    1905.3318   -675.49543    297284.11    14.745256 
  272000    2065.1661   -736.57527    296749.54    15.231269 
  272500    1934.4406   -755.61693    304008.86    15.491161 
  273000    2144.1658   -753.63977    297272.62    15.489109 
  273500    1992.8452   -732.36976    303430.67    15.252636 
  274000    1927.1864   -744.60517    303412.31    15.315404 
  274500     2034.311   -734.46142    298806.33    15.192787 
  275000    2007.8075   -725.62747    301064.57    15.149897 
  275500    2025.8596   -706.34349     300172.1    15.002758 
  276000    2074.8833   -706.99816    304520.27    15.070322 
  276500    1991.5009   -715.03285     302263.4    15.128441 
  277000    2147.5072   -751.36959    302511.77    15.452113 
  277500    1857.2698   -726.26191    294600.69     15.29193 
  278000    1933.1171   -607.99417    304332.04    14.563281 
  278500    2081.5875   -621.72845    292094.71    14.561638 
  279000    2025.9293   -612.04182    298736.02    14.557605 
  279500    2028.5045   -606.84172    289142.45    14.492585 
  280000    2114.3488   -602.60354    299797.41    14.575778 
  280500    1956.5176   -601.05333     314995.4    14.561618 
  281000     1951.349   -691.83028    301030.05    15.300298 
  281500    2122.8276   -669.04547    299358.47    15.189285 
  282000    2217.3884   -647.51491    309662.54    15.010183 
  282500     2006.488   -662.00172     290022.6    15.143486 
  283000    1967.4646   -661.88768    297251.16    15.147082 
  283500     2014.093   -648.30261    306236.98    14.962935 
  284000     2183.461   -670.58289    303225.85    15.232298 
  284500    1956.3883   -640.91801    303461.58    15.074327 
  285000    2012.3183   -650.40908    294965.92    15.214496 
  285500    2035.8262   -639.60024    310985.68    14.968424 
  286000    1953.0061   -651.36251    290865.42    15.102646 
  286500    2187.5945   -693.08997    299738.45    15.498824 
  287000    2047.8425   -689.51822    300500.54    15.426845 
  287500    2138.1114   -700.56156    296805.15    15.436374 
  288000    1982.9222   -705.80613    299962.55    15.387918 
  288500    1991.6289   -660.86399    299755.88    15.238742 
  289000    2013.3621    -635.5862    308060.41    14.925637 
  289500    1926.7709   -643.88252    305407.51    14.977563 
  290000    2118.7675   -661.24019    295040.18    15.073627 
  290500    2006.7745   -610.31607    292583.26    14.690075 
  291000    1969.1366   -600.93014    313321.15    14.576923 
  291500    2068.6304   -603.90531    300141.13    14.492401 
  292000    2090.2168   -604.67501    307524.29    14.501672 
  292500    2005.9125   -663.85936    294741.21    14.835093 
  293000    2015.7929   -722.77026       296734    15.162146 
  293500    2001.6347   -627.38038    293559.67    14.709435 
  294000    2009.0349   -612.66508    292956.67    14.638446 
  294500    2103.5744   -620.70557    298491.77    14.641645 
  295000    1979.6704   -597.31988    312706.65     14.45997 
  295500    1803.4292   -608.88957    293054.51    14.648916 
  296000    1952.0992   -612.59646    294101.56     14.58729 
  296500     2141.051   -617.59909    297522.34    14.603149 
  297000    2037.7295   -601.84751    308027.37    14.406806 
  297500    1962.8199   -690.67734    294847.06    14.889833 
  298000    1971.1308   -662.83971    301937.31    14.882888 
  298500    1820.1812   -597.69246    293875.97    14.531805 
  299000    1901.7755   -606.52872    302812.49    14.374616 
  299500    1984.7553   -595.75738    325521.25    14.352578 
  300000    2043.5566   -635.23899    302323.47    14.624958 
  300500    1947.1836   -603.59805    298642.07    14.449168 
  301000    1887.2279   -680.36281    289328.41    14.781493 
  301500    2059.3279   -665.74072    298762.54    14.715764 
  302000    1996.7715   -671.98512    298200.27     14.72779 
  302500    1957.9438   -654.49861    301196.28    14.662815 
  303000    2010.9223   -757.42294    274644.53    15.429131 
  303500    1828.7448   -735.83991    295533.92    15.272967 
  304000    2085.1889   -740.82024    298487.05    15.267243 
  304500    1852.8811   -724.91452    300132.01    15.080779 
  305000    1878.0401   -704.44506    300072.19    15.098691 
  305500    1954.9966   -754.94709    289020.92    15.529739 
  306000    2061.8391    -753.9078    305686.55      15.4849 
  306500    2108.0423   -726.58465     305940.7    15.138177 
  307000    1966.8965   -716.33664    298196.04    15.094649 
  307500    1817.8934   -735.72121    307380.34    15.318082 
  308000    1770.6073   -737.25906    299837.74    15.412775 
  308500    2207.6893    -743.2124    313933.53    15.371537 
  309000    1982.3696   -723.16729    297515.25    15.247998 
  309500     1978.564   -722.49076    302051.04    15.160178 
  310000    2089.4058   -719.17281    297969.49    15.021232 
  310500    1974.0197   -726.26543    305196.16     15.12715 
  311000    2097.3178   -723.69279    300830.36    15.035558 
  311500    2134.1587   -720.67298     294958.3    14.998539 
  312000    2086.5827   -749.16869    306215.01    15.361169 
  312500     1849.944   -750.86352    301244.39    15.472342 
  313000    1982.7896   -753.74602    303342.13    15.483015 
  313500    2066.4807   -762.69391    277262.58    15.538026 
  314000    1952.2047   -753.59326    310950.38    15.491687 
  314500    1916.9071   -657.26797    298873.04    14.819914 
  315000    1776.5047   -591.47323    309134.13    14.546716 
  315500    1909.7304    -656.0677    303167.69    14.842552 
  316000    1981.7788   -649.50975    295422.75    14.724331 
  316500    1983.5601   -631.27749    299316.85    14.647051 
  317000    2057.7181   -686.00952    298045.22    15.002063 
  317500    2078.6119   -722.49081     296704.1    15.169677 
  318000    1944.6598   -608.03178    296394.93    14.487635 
  318500    2092.0433   -604.17838     306274.2    14.352227 
  319000    1975.3853   -614.82238    280428.93    14.393145 
  319500    2061.3815    -618.6225    287317.35    14.400647 
  320000    2029.2613   -616.43866    286178.21    14.489564 
  320500    2013.6066   -624.61572    294035.27     14.54421 
  321000    1885.5171   -602.87108    297948.81    14.474465 
  321500    2060.2364   -681.66448    300433.94    14.930839 
  322000    1934.4225   -754.40421    305398.37     15.50777 
  322500    2048.9778    -758.3296    278695.65    15.633566 
  323000    2097.9744    -754.8693    294154.05    15.527566 
  323500    1852.3224   -723.93627    295952.86    15.329922 
  324000    2040.0011   -647.64189     298327.6    14.794035 
  324500     1912.619   -605.28123    302082.88    14.606322 
  325000    1951.0221   -637.60433    299738.47    14.724531 
  325500    2067.1161   -635.88656    299523.72    14.797146 
  326000    2433.0206   -694.65168    301000.87    15.062124 
  326500    2184.6888   -667.10476    299707.71    14.907167 
  327000    1827.0055   -608.40679    290711.14    14.582131 
  327500    1977.5458   -611.94394    294624.92    14.645487 
  328000    1961.3416   -626.58398    293788.11    14.685083 
  328500    2137.7356   -597.87809    317865.37    14.556365 
  329000     2110.791   -614.00406    295354.34    14.635991 
  329500     2064.532   -603.34835    294370.13    14.632809 
  330000    2014.1054   -604.91714    300905.24    14.605828 
  330500    1913.7765   -639.82289    293807.69    14.784326 
  331000    2228.2416   -611.62818    291645.59     14.47881 
  331500    2069.7435   -655.53475    299429.92    14.650868 
  332000    1976.3205   -685.19687    302686.26    14.911719 
  332500    1910.3196    -752.9967    283755.36     15.57952 
  333000    1891.4189   -749.01096    315279.43    15.485551 
  333500     2063.678   -755.24044    302242.92    15.539009 
  334000    1888.4099   -739.32633    310273.62    15.467619 
  334500    1823.7234   -750.17609    311828.05    15.525615 
  335000    1692.7809   -737.97783    296948.96    15.425006 
  335500    2248.5282   -752.52189    312684.57    15.571466 
  336000    1846.1762   -747.41141    287699.46    15.582427 
  336500    1984.1069   -694.53689    304014.22     15.06949 
  337000     2050.608   -689.33319    292628.77     15.01111 
  337500    2116.9638    -627.3407    297667.94    14.677783 
  338000    2078.4817    -603.4877    303330.99    14.600964 
  338500    1928.1743   -602.19032    290224.86    14.673479 
  339000    2015.3859   -645.93919    295505.16    14.894058 
  339500     2123.343   -652.23769       296074    15.125262 
  340000    2027.2654   -707.83918    307303.77    15.330396 
  340500    1913.5083   -704.03616    295331.37    15.485744 
  341000    1937.8718   -717.84323    292613.77    15.674539 
  341500    1949.1642   -705.44682    304042.68    15.490563 
  342000    1855.3922   -701.39764    299111.22    15.521349 
  342500    1791.1682   -697.79733    298413.79    15.558479 
  343000    1901.3084    -692.7255    302013.71    15.544949 
  343500    2014.1611   -691.43167    300207.59    15.556877 
  344000    2066.7304   -682.46054    313729.54    15.387507 
  344500    1939.6793   -705.33929    291747.58    15.609321 
  345000    1912.4477   -692.75686    298631.51    15.573557 
  345500    1935.8151   -696.44751    299432.69    15.560027 
  346000     1935.158   -700.67746    290610.96    15.602059 
  346500    1844.8019   -660.36345     292000.9    15.300306 
  347000    2157.0481     -644.141    301248.47    15.089002 
  347500    1879.7746   -640.58432     292743.1    15.177573 
  348000    1934.6071   -634.52367    297746.66    15.162243 
  348500    1976.0111   -648.24171    291333.03    15.208091 
  349000    2052.5097   -640.34565    303427.45    15.052561 
  349500    2068.0222   -643.98564    310225.63    14.961448 
  350000    1989.6091   -648.21194    303185.62    15.141861 
  350500    2123.7387   -637.26483    307461.58     15.03967 
  351000    2090.0501   -634.06588    303898.88    15.020539 
  351500    2019.5043   -693.30254     309808.7    15.419731 
  352000    1990.4965   -744.18493    297255.62    15.757264 
  352500    1817.6535    -719.0465    286448.36    15.704439 
  353000    2085.3826   -694.84463    307637.38    15.451711 
  353500    1926.8019   -718.44456     296472.4    15.625145 
  354000     2001.952   -707.71285    297663.98     15.53495 
  354500    1937.3878   -732.40873    303696.05    15.711542 
  355000    2254.6764   -756.48197    277205.65    15.746007 
  355500     1854.968   -731.43984    298978.01    15.733771 
  356000    2131.0954   -747.34318    297489.96    15.767431 
  356500    2000.5974   -741.39718    310785.23    15.713703 
  357000    2136.5723   -747.57619    306573.63    15.688771 
  357500    2158.3439   -743.32748    312438.57    15.679553 
  358000    1910.2598   -752.72043    303470.36    15.716967 
  358500     1979.014   -739.78269    302382.26    15.743123 
  359000    2057.1226   -743.84237    310036.43    15.697394 
  359500    2047.4228   -750.29889    299185.66    15.767311 
  360000    1815.0247   -738.67329    309697.91    15.645881 
  360500    2022.1426   -708.01919    298372.84    15.456944 
  361000    2020.7957   -700.35026    303769.02    15.431262 
  361500     2150.094   -700.02632    308698.44    15.441748 
  362000    1894.9102    -710.5284    293971.42     15.58208 
  362500    1841.0667   -698.63428    305156.35    15.404393 
  363000    1966.8725   -751.92623    295404.67    15.654747 
  363500     2043.873   -749.39416    309114.42    15.593956 
  364000    2001.9488   -752.16955    286813.92    15.707087 
  364500     2100.795   -604.32511     304634.7     14.56185 
  365000    2017.5482   -643.65593    302717.12    14.748171 
  365500    1953.3791   -674.50836    295684.11    15.069221 
  366000    1976.5437   -651.56178    296812.06    14.863465 
  366500    1748.5028   -619.58583    290824.79    14.724404 
  367000    2041.0209   -704.31761     296269.3    15.358936 
  367500    1964.0097   -697.68432    300288.32    15.051311 
  368000    1918.9247   -685.60318    299719.69    14.853076 
  368500    1844.3462    -652.1509    299325.16    14.715104 
  369000    2032.4309   -662.82873    306430.28    14.655068 
  369500    1855.9982   -684.61105    299162.61    14.615843 
  370000    2013.6679   -680.46525    302504.08    14.665822 
  370500    2063.4759   -691.34607    300914.22    14.723907 
  371000    2063.9381   -669.74375     311964.4    14.608615 
  371500    1952.6102   -679.76545    306326.87     14.61198 
  372000    1888.6278   -676.25769    303027.14    14.618376 
  372500    1843.7187   -672.26743    291375.55    14.631572 
  373000    1884.5227   -683.64995    309890.57    14.585517 
  373500    2190.7599    -674.9311    296085.83    14.656077 
  374000    1891.4534   -674.16531    293168.54    14.728955 
  374500    1948.4226   -664.59792    310812.97     14.60756 
  375000    2033.9491   -656.30728    299090.67    14.723029 
  375500    1882.9532   -628.89996    297487.08     14.60674 
  376000    2233.6707   -604.86336    298103.97    14.468766 
  376500    1912.9877   -670.23275     291794.5    14.843227 
  377000     2142.967   -611.99442    316353.05    14.522404 
  377500    2068.2295   -597.27302    299634.47    14.678126 
  378000    1816.5466   -593.66851    307224.24    14.599605 
  378500    2192.5196   -589.24298    315916.13    14.594647 
  379000    2146.5369   -597.25528    311652.56    14.566042 
  379500    1948.4343   -608.56185    294173.12    14.643713 
  380000    1983.6199   -606.36387    292932.41    14.644542 
  380500     2313.839   -582.56272    324015.12    14.563416 
  381000    1968.5767   -694.37725    299622.78    15.494944 
  381500    1944.0718   -702.74671    295232.67    15.549857 
  382000    1877.2097   -693.26522       304536    15.440175 
  382500    2147.1827   -698.11589    287333.32    15.550527 
  383000    1993.4688   -731.82907    295674.17    15.726655 
  383500    1933.8532   -657.51905    299176.18    15.163335 
  384000    2034.0824   -653.71764    297781.99    15.087971 
  384500    2195.0805   -688.20278    303393.97    15.205411 
  385000    1929.6487   -683.46894     298670.8    15.102352 
  385500     2129.213   -592.32127    305286.42    14.511144 
  386000    2057.0463   -623.95105    298123.73    14.770764 
  386500    1992.5843   -584.51876    320437.83    14.586297 
  387000     2071.887   -622.80296    301925.18    14.668011 
  387500    1952.4556   -608.30072     290802.7    14.671502 
  388000    1929.2423   -594.44257    302088.58    14.582221 
  388500    1957.3861   -644.18784    300974.49    14.774895 
  389000    1853.6162   -659.69645    296875.86    15.004463 
  389500    2054.2447   -662.25352    300382.32    15.046001 
  390000    2065.6614   -641.14559    300561.37    14.889407 
  390500    1891.1574   -656.13713    299950.14    14.994034 
  391000    2072.0044    -616.1128    297245.03    14.723794 
  391500     1950.779   -645.68761    303432.05    15.042128 
  392000    2020.1164   -676.13103     298444.6    15.174932 
  392500    1866.4985   -600.49305    304613.26    14.594699 
  393000    2099.8483   -587.95481     320400.2    14.479419 
  393500    1904.6477   -703.60044    299828.45    15.113829 
  394000    2151.4363   -672.11311    298455.18    14.960866 
  394500    2065.7886   -591.63863    333802.79    14.352828 
  395000    2059.8024   -657.81615    304470.19    14.638954 
  395500    1880.7753   -639.70019    300761.31    14.601784 
  396000    1854.7865   -606.15035       294934    14.501627 
  396500    2130.0327   -606.48113       284965    14.403543 
  397000     1873.603    -611.1117    288203.53     14.36784 
  397500    1980.2004   -593.05147    306152.17    14.445781 
  398000    2012.6136   -669.30592    295102.55      14.7722 
  398500    1823.9738   -657.41182    299059.72    14.757843 
  399000    1876.5576   -597.29059    296554.92    14.432744 
  399500    2078.2504   -601.19042     299362.3    14.432224 
  400000    1967.7864   -603.86247    293942.03    14.379549 
  400500    1940.4435   -618.90038    292559.54    14.337979 
  401000    1932.0839   -614.90824    318426.84    14.293475 
  401500    2086.4986   -600.76937       309429     14.33406 
  402000    1821.5383   -597.39232    296331.88    14.375226 
  402500    2230.5781   -607.22872    298438.88    14.336016 
  403000    2037.6014   -611.69098    281129.36    14.440258 
  403500    1898.8649   -601.09423    298784.93    14.391837 
  404000    2086.5933   -611.82182    295507.25    14.376719 
  404500    1928.4138   -610.80244    298147.47    14.330716 
  405000    1840.2551   -609.60051    315403.59    14.300421 
  405500    1799.1788   -601.12878    329552.52    14.291355 
  406000    2013.8155    -653.0158    302120.09    14.415585 
  406500    1913.0132    -599.7312     322899.9    14.301507 
  407000    2015.4448   -622.99714    305681.44    14.480587 
  407500    2021.9866   -603.75524    294081.47    14.406616 
  408000    2029.4695   -671.87528    295215.34    14.706426 
  408500    1929.8604   -688.39365     290870.3     14.76895 
  409000    2074.2192   -614.50907       290422    14.461747 
  409500    1934.0225   -676.34536     299048.4    14.857069 
  410000    1997.0286   -698.55312    303853.33    15.051305 
  410500    1927.2263   -726.35989    292113.58    15.248785 
  411000    1834.2717   -676.98008    301223.87    14.947518 
  411500    1895.7677    -731.7467    298664.43    15.334228 
  412000    1939.7175   -756.21213     278884.4    15.614127 
  412500    1839.0939   -655.53933    303480.88    14.904466 
  413000    1897.2204   -619.56734    291472.58     14.67457 
  413500    1938.3112   -615.51818    301113.83    14.573366 
  414000    2067.8945    -600.4388    307850.01    14.480498 
  414500    2324.7984   -708.35041    300202.96    15.364184 
  415000     2177.448   -661.39008    302253.81    15.036832 
  415500    1960.5569   -682.70254    299086.18    15.175881 
  416000    1891.8848   -662.58942    303113.67    14.892505 
  416500    1896.5911    -673.2768    304599.26    14.844073 
  417000    2040.5731   -704.17079    295151.53    15.091834 
  417500    1995.3033   -655.10122    298456.98    14.724444 
  418000    2096.2868   -648.69168    293822.29    14.666678 
  418500    1857.5464   -619.23168    300278.24    14.620189 
  419000    2033.9925   -614.08047    289711.95    14.680035 
  419500    1869.5966   -585.71411    322125.24    14.538552 
  420000    2012.4058   -745.93436     305800.9    15.469486 
  420500      2012.19   -756.58635    292783.48     15.64891 
  421000    1874.7455   -753.05895     300825.9    15.652454 
  421500    1957.4641   -748.40038    299579.25     15.60863 
  422000    2033.8609   -728.12513    293246.74    15.351276 
  422500    2022.0883   -615.49479    303590.78     14.52786 
  423000    1985.0047    -611.2886    304997.69    14.555665 
  423500    1939.8778   -616.07337    311540.01    14.596518 
  424000    2044.3692   -600.88083     295723.4    14.598299 
  424500    1875.2788   -665.73904    294302.02    15.090931 
  425000    1811.4685   -651.14816    297252.24    15.067029 
  425500    1814.3353   -658.72088    289680.89    15.114978 
  426000    2006.0983   -702.57802    290610.01    15.421466 
  426500    2066.7223   -639.47096    304822.68    14.687051 
  427000     2058.573   -692.96589    302554.71     14.94541 
  427500    1917.3554   -698.72655    299106.42    15.054881 
  428000    1964.2929   -721.52474    296442.69    15.285087 
  428500    1913.0119   -712.64787     301117.1    15.230995 
  429000    1950.0273   -700.72627    302217.83    15.300181 
  429500     2035.285    -717.9357    301521.76    15.297842 
  430000    1908.9701   -713.27584    298929.23    15.243251 
  430500     1931.669   -665.86005     298779.7    14.987445 
  431000    2087.6757   -614.32024    296639.78    14.612223 
  431500    2136.4116   -602.17593    301049.56    14.623273 
  432000    1892.7746   -603.47428    293428.93    14.563035 
  432500     1990.574   -603.13301    298206.64    14.516949 
  433000    2075.8072   -660.32676    298260.64    14.725821 
  433500    1993.8462   -671.19437    284392.06    14.838618 
  434000    1992.5008   -654.59219    307587.85    14.673596 
  434500    1880.9042   -636.17549    302410.69    14.635449 
  435000    1935.1225   -605.43887    300978.49    14.363164 
  435500    1983.3283   -594.31718    315289.11    14.352565 
  436000    1843.2822   -649.91831    301672.37    14.718519 
  436500    1973.9248   -624.90357    301676.34     14.62238 
  437000    1960.1753   -634.29927    298039.57    14.701621 
  437500    2135.7157   -744.28706    282782.87    15.640497 
  438000    2114.7825   -746.66807    293541.19    15.575351 
  438500    1981.8407   -752.69468    305392.96    15.622622 
  439000    2105.4521   -754.30178    296185.16    15.645895 
  439500    2071.7569   -739.44934    301422.05    15.640185 
  440000    1909.2914   -742.35986    309378.59    15.519532 
  440500    1997.1756   -753.54703    276630.28    15.733159 
  441000    2001.5971   -748.98335    303813.72    15.658284 
  441500    2050.4948   -751.38931    293805.25    15.689565 
  442000    2096.9485   -743.50209       306080    15.520116 
  442500    1926.4978   -757.34752    281288.59    15.583593 
  443000    1916.7882   -747.53373    303302.21    15.645555 
  443500    1906.5655   -754.94014    297350.29    15.651905 
  444000    1847.2505   -756.45829    288402.89    15.684779 
  444500    1951.8086   -751.95632    307340.53     15.59654 
  445000    1915.4564   -749.64382    306736.38    15.545802 
  445500    2046.1902   -758.31932    294938.31    15.610198 
  446000    1989.9706   -759.35227     304367.5    15.582653 
  446500    2037.3323   -755.84369    289004.94    15.682481 
  447000    2024.5465   -759.88506    287634.11    15.637046 
  447500    1982.9934   -753.00978    301059.26    15.647225 
  448000    2023.2867   -753.46572    298498.12     15.62417 
  448500    2218.1355   -753.61766    312244.06    15.584058 
  449000    1920.5591   -751.72675    287280.14    15.663309 
  449500    1928.3327   -750.49215    301129.94    15.666397 
  450000    2140.6766   -749.51011    292358.88    15.725379 
  450500    2019.1218   -750.34525     281158.4    15.756889 
  451000      1941.81   -722.66009    297027.35    15.511226 
  451500    1945.4499   -702.67789    294759.71    15.312831 
  452000    2040.7112   -710.65926    297389.25    15.331387 
  452500    1905.1918   -724.92701    299423.79    15.220599 
  453000    1955.2392   -703.34986    296541.85    15.056542 
  453500    1942.5536   -683.15574     300546.2    14.860462 
  454000     2079.317   -652.58547    313176.31    14.625711 
  454500     2088.943   -722.59864    287329.51    14.987014 
  455000    1966.5531   -713.64945    306628.34    14.928364 
  455500    1978.9033   -735.24176    303180.49    15.073785 
  456000    2230.3156   -749.36694    309584.21    15.312245 
  456500    1904.4752   -697.75987    302044.87    15.043932 
  457000    1918.4935   -669.54694    299218.33    14.735338 
  457500    1879.8214   -603.23765    300089.77    14.395335 
  458000    2053.9585   -681.78321    280756.41    14.762331 
  458500    1993.7718   -650.07643    304337.67    14.579851 
  459000    1917.8473   -670.24154    295681.92    14.688995 
  459500    1881.5144   -638.14487    300162.35    14.601886 
  460000    1900.1281   -670.78463     288225.8    14.687172 
  460500    2103.0959   -683.20691    290692.86    14.716174 
  461000    1888.6395   -698.61796    292659.64    14.744274 
  461500    1936.0446   -638.11987     301538.2    14.581147 
  462000    1924.5429   -654.33815    302732.82     14.63446 
  462500    1942.1408   -653.23603    298577.79    14.560531 
  463000    1815.7594    -672.6314    287977.35    14.725735 
  463500    1929.5439   -646.33623    305080.79    14.672035 
  464000    2064.0607   -679.58519    306174.52    14.853076 
  464500    1963.1234   -708.20238    301264.25    15.111699 
  465000      2032.38   -683.15105     298945.2       14.923 
  465500     1964.538   -682.22445    297931.14    15.048355 
  466000    1852.6057   -695.99812    300065.38     15.30508 
  466500    2029.5495     -623.739    297628.59    14.734978 
  467000    2174.3044   -616.19894    296849.31    14.567225 
  467500     1968.712   -650.29756    306081.16    14.611693 
  468000    2006.0786   -649.49779    316828.17    14.546472 
  468500    2040.6848   -617.01937       291757    14.403023 
  469000    2065.9527   -645.20814    304047.08    14.600904 
  469500    1834.8794   -654.39167    302384.69    14.623357 
  470000    1985.9666    -682.7064    293692.95    14.648019 
  470500     2211.564   -663.60688    305153.04    14.605882 
  471000    2109.1182   -659.36256    292006.17    14.676109 
  471500    2157.2623   -657.42329    294687.19    14.761824 
  472000    2124.7288   -645.79856    289980.81    14.717134 
  472500    2205.6165   -660.44987    303129.22    14.641523 
  473000    1815.1014   -691.85343    296087.23    14.938118 
  473500    2022.4479   -702.13245    306441.27    15.088228 
  474000    2166.8277   -723.57849    298676.54    15.116542 
  474500    1933.4699    -701.3176    303012.82    14.886404 
  475000    1962.7107   -764.18049    294102.22    15.402029 
  475500     2088.398    -746.0482    300742.32    15.237852 
  476000    1858.4926   -713.52061    305841.65    15.090297 
  476500    1865.0679   -735.13392     294533.3    15.109279 
  477000    2066.4361    -750.0642    307053.34    15.283188 
  477500    1877.2327   -752.55167    300553.07    15.458484 
  478000    1962.9285   -750.68375    298208.19    15.452809 
  478500    2110.8741   -757.34545    300008.19    15.524275 
  479000    1771.6548   -749.71046    294962.57     15.34447 
  479500     1891.599    -748.2213     305633.5    15.296868 
  480000    1874.7711   -752.99349    302527.49    15.362737 
  480500    2101.3973   -760.15141    305246.09    15.357178 
  481000    2093.6506    -754.8386    298612.88    15.428261 
  481500    1956.2353   -757.63141    299526.05    15.479019 
  482000    1965.9793    -758.7989    286792.83     15.52417 
  482500    2220.3913   -756.22595    303116.77    15.506406 
  483000    2109.1967   -727.20633    284620.62    15.227899 
  483500    1957.9582   -713.54431    296341.36    15.240548 
  484000    1937.9649    -680.7347    299629.22    15.016448 
  484500    1888.8286   -602.25748    300774.37    14.508638 
  485000    1942.2982   -702.90893    304708.89    14.941288 
  485500    1785.7648   -713.27603    299960.53      15.0231 
  486000    1989.5986   -717.27244    304315.19    14.902571 
  486500    2187.4164   -757.12118    307212.07     15.35675 
  487000    1803.9279   -756.74988     301582.8    15.362941 
  487500    1938.4584    -753.8022    316660.74    15.387046 
  488000    1920.9046   -753.36555     306610.3    15.340625 
  488500    1911.3361   -752.34683    302171.97    15.363388 
  489000    1813.9469   -745.86125    299873.97    15.194728 
  489500    2061.6182   -726.72607    294431.17    15.117732 
  490000    2097.1512   -754.18753    302897.14    15.468115 
  490500    1953.8444   -707.55983    305888.68    15.056707 
  491000    1947.6055   -713.86443     304862.9    14.978902 
  491500    2073.2684   -732.73483     286867.3    15.053671 
  492000    1972.5579   -719.11432    304400.86    14.945304 
  492500    2220.6942   -748.98883     304905.5    15.249288 
  493000    2111.0974   -762.16949    287470.69    15.459564 
  493500    1986.4923   -748.66606       298193    15.147288 
  494000    2036.4391   -740.36955     298218.7    15.077841 
  494500    2047.1895   -732.23219    301402.74    15.078055 
  495000    2050.7028   -756.01521    301456.09    15.458741 
  495500    1790.4599    -755.6236    299420.43    15.402096 
  496000    1897.2577   -756.13082    300391.65    15.296344 
  496500    2139.0867   -721.62497     310131.7    15.006846 
  497000    2007.2268   -714.73954    308438.33    14.930793 
  497500    1854.2508   -696.94133    295020.66    14.785564 
  498000    1792.0586   -696.54119    302241.51    14.862255 
  498500    2174.4878   -665.56455       304889    14.635007 
  499000    2021.3667    -667.1644    295672.12    14.734988 
  499500    2168.7233    -707.1775    308485.25    15.038895 
  500000    2115.6796   -751.65085    292341.23    15.477034 
  500500    2057.3587   -722.89046    298073.44    15.189137 
  501000    1992.3714   -720.91822    295132.21    15.128661 
  501500    2217.3721   -711.30818    304928.69     15.06684 
  502000    2032.8922   -711.80633    295752.63    15.145287 
  502500    2140.5513   -725.84706    289286.79    15.122814 
  503000    1894.4555   -741.83795    300031.82    15.256136 
  503500    2008.2896   -731.42326    295658.96    15.151111 
  504000    2058.1851   -732.97168    303425.06    15.080807 
  504500    2036.2034   -720.63967    293511.05     15.11835 
  505000    1796.6249   -711.09453    303913.77    15.083335 
  505500    1937.4896   -734.21075    297844.61    15.343764 
  506000    2126.6478   -753.04838    310719.69    15.573998 
  506500    1956.4103   -745.54097    308526.62    15.598386 
  507000    1988.0352   -705.59805    302420.27    15.181326 
  507500    2059.9763   -617.48661    298608.45    14.623863 
  508000    1892.3067   -629.79985     298323.4    14.631389 
  508500    2025.5833   -686.49321    308180.47     14.92386 
  509000    2197.5787   -754.58821       283347    15.481859 
  509500    2169.9648    -741.2037    307059.33    15.355629 
  510000    2126.1952    -696.5772    302848.17    15.030677 
  510500     1940.162   -675.11963    304389.98    14.950341 
  511000    2038.6192   -598.33908    295396.88    14.626715 
  511500    1982.9783   -592.08699    301392.17    14.471051 
  512000    2029.7636   -591.27934    298415.33    14.473116 
  512500    1980.6473   -643.03652    302083.38    14.668792 
  513000     1916.703   -631.82697    304774.19    14.625653 
  513500    2030.7723   -613.52172    289066.06     14.48888 
  514000    1971.2612   -652.91269       304572    14.687057 
  514500    1959.9927   -622.21387    295552.65    14.734331 
  515000    2088.4287   -591.96972    300439.27    14.482007 
  515500    2090.2075   -588.51285     309796.2    14.530096 
  516000    1964.8507   -595.95705    296591.04    14.570713 
  516500      1975.06   -639.71729    293410.68    14.800517 
  517000    1963.7435   -602.22981    292972.48    14.619626 
  517500    1952.3541   -587.76011    307641.52    14.548004 
  518000    2073.5811   -619.87172    291020.52    14.678579 
  518500    2044.9935   -678.79819    297982.25    14.899698 
  519000    2172.8342   -605.14767    309429.02    14.526465 
  519500    1937.5295   -669.55896     296615.2    14.927794 
  520000    1902.4111   -640.28001    292081.77    14.768915 
  520500    1913.6868   -665.79068    302941.71    15.006795 
  521000    1991.8624   -656.89206    293654.01    14.965793 
  521500    2023.9711    -638.5969    304555.51    14.902149 
  522000    1880.8837   -637.26654    308098.87    14.917439 
  522500      2011.16   -639.17402    303039.46    14.741716 
  523000    2108.9952   -620.95674    293237.94    14.715096 
  523500    1836.6832   -615.14416    302180.43    14.654159 
  524000    1841.0102   -596.36946    311042.98    14.581594 
  524500    2039.9146   -620.97268    293310.79    14.656463 
  525000    2130.0042   -629.45845    296154.43    14.697407 
  525500    1988.1528   -676.55716    299694.42    14.914894 
  526000    1989.0899   -679.52263    301161.73    14.883523 
  526500    2040.4369    -588.1761    310413.09    14.574086 
  527000    1888.1192   -625.99879    291382.68    14.780486 
  527500    2006.1989   -595.30801    293099.42    14.503288 
  528000    1871.9232   -593.69871    294682.21    14.513175 
  528500    2085.4623   -605.73485    295375.52    14.678291 
  529000    1921.8497   -613.17962    291727.01    14.731256 
  529500    1853.2181   -612.71538     293180.5     14.76811 
  530000    2190.2152   -600.61223    304020.83    14.588025 
  530500    2179.1995   -633.74696    298288.23    14.708497 
  531000     1794.999   -618.72043    289194.51    14.760961 
  531500    2034.7381   -602.06549    304221.87    14.592572 
  532000    1928.2783   -599.60702    289950.89    14.639224 
  532500    2203.4578   -601.33305     300018.1    14.594005 
  533000    2041.9224   -605.16603    292617.44    14.705512 
  533500    1901.9036   -598.92855    290941.82    14.648211 
  534000    2059.2119   -594.67833    298338.33    14.680114 
  534500    1896.5896   -584.81759    297381.13    14.623781 
  535000    1799.6607   -595.94828    302634.22    14.586489 
  535500     2001.828   -616.53689    300358.69     14.66484 
  536000    2147.2475   -593.77083     316197.7    14.523719 
  536500    2115.2845   -665.86371    293087.06    15.067838 
  537000     2061.335   -695.82294    303835.62    15.311587 
  537500    1884.3161   -689.59953    295247.97     15.45081 
  538000    2123.0548   -700.78217    302180.91    15.466526 
  538500    1947.4381    -699.7435     297423.7    15.497797 
  539000    1983.6385    -734.5021    299532.68    15.742247 
  539500    1898.9609   -736.41147    308085.64     15.67458 
  540000    1972.8557   -698.26722    301024.26    15.532063 
  540500    2047.7382   -625.81016    313643.06    15.037524 
  541000    2199.5584   -615.04167     309278.5    14.882887 
  541500    2133.0803    -741.8505    295109.85    15.774894 
  542000      2021.43    -755.6501    293660.13    15.720459 
  542500    1855.2927   -748.89704    300998.87    15.733531 
  543000    2026.8858   -739.57338    303780.81    15.739494 
  543500    2087.8364   -617.90482    305352.99    14.901262 
  544000    1915.7298   -644.54028    295829.65    14.869969 
  544500    2120.2082   -620.13244    294299.47    14.702956 
  545000    2166.3147   -606.94417    315795.85     14.56022 
  545500    1956.1238   -609.97382    288778.32    14.657039 
  546000    1940.5168   -590.95987    319948.39    14.539578 
  546500    1842.9193   -655.05325    301300.84    14.866997 
  547000     1908.114   -623.46183    306800.31    14.725707 
  547500    2128.6574   -596.29164    294235.19    14.651459 
  548000    2038.1997   -665.12077    292472.53     14.97012 
  548500    1753.5991   -633.73874    298570.94    14.854772 
  549000    2174.9037   -583.11103     314550.2    14.575763 
  549500    1840.7214   -585.34094    304347.48    14.514432 
  550000    2030.6238   -629.97296    296398.42     14.71206 
  550500     2011.446   -655.29188    297560.86    14.883942 
  551000    2131.5414   -593.23874     306082.2     14.46039 
  551500    2178.1564   -590.95151    304329.03    14.409321 
  552000    2022.0815   -606.47824    296627.64    14.567211 
  552500    2105.2063   -724.04172    295109.87    15.371176 
  553000     1941.428   -710.98307    300518.61    15.419988 
  553500    1933.8143   -714.86713    300034.54    15.353866 
  554000    2004.9542   -722.35492     292276.6    15.294411 
  554500    1872.3735   -671.29052    305232.31    14.905931 
  555000    1893.4999   -751.46422    304032.68    15.616387 
  555500      2019.09   -746.95502    303038.38    15.713849 
  556000    2034.6873   -744.14867    306806.55    15.638617 
  556500     1811.642   -750.13128    293497.06    15.710501 
  557000    2096.7473   -740.53484    308248.41    15.443435 
  557500    2022.2554    -719.8665    299684.79    15.444063 
  558000    1983.8189   -686.83205    300001.16    15.359181 
  558500     2070.288   -689.59833    302220.57    15.370789 
  559000    2048.8668   -704.95503     299974.3    15.403945 
  559500    2071.7997   -718.79097    290504.11    15.415258 
  560000    2169.2395   -611.90671    299645.78    14.751537 
  560500    1749.1166    -624.8524    306011.11    14.888589 
  561000    2025.4142   -651.24202    301220.64    15.025606 
  561500    2069.6046   -657.09354    298509.74    14.898826 
  562000    1892.0017   -588.78745    305225.73    14.542376 
  562500     1949.925   -674.59706    299809.55    14.996519 
  563000    2087.7765   -631.07276    311290.88    14.559405 
  563500    1956.8338   -656.63715    300914.08    14.628518 
  564000    2158.1438   -666.02736    297762.71     14.72526 
  564500    2009.9601   -665.12791    299732.07    14.642065 
  565000    2203.3936   -604.74142    298340.58    14.391633 
  565500    1917.8923   -633.07595    294678.64    14.398813 
  566000    2222.1794   -599.63808    308313.96    14.330786 
  566500    1932.0857   -648.74085     304857.7    14.477711 
  567000    1802.2147    -662.7704    304486.38    14.584518 
  567500    1968.8018   -651.50702    305090.64    14.493659 
  568000    2001.9282   -670.04358    288837.51    14.700222 
  568500    2145.8103   -626.02904    306681.88    14.406964 
  569000    2024.9051   -608.68885    308226.94    14.353095 
  569500    1982.5732   -632.19842    304398.75     14.34836 
  570000    2025.3049   -723.78393    302846.23    14.981502 
  570500    1969.2248   -717.65975    296274.03    15.031414 
  571000    1853.5649   -672.92076    290500.58    14.705656 
  571500     1962.181   -688.66914    293221.87    14.695272 
  572000    2081.4848    -741.6652    292481.94    15.115233 
  572500    2022.9322   -648.01648    301394.99    14.490321 
  573000    2124.2862   -667.78428    296770.71    14.642144 
  573500    1961.2564   -656.60805    299473.93    14.497559 
  574000     1994.496   -626.56532    306135.31    14.354814 
  574500    1896.5664   -643.19241     289751.7    14.397647 
  575000    2025.4641    -629.6204    304410.05    14.352451 
  575500    2079.7734   -673.61019    299726.61    14.566427 
  576000    1827.8304   -724.36226    299587.46    14.995424 
  576500    1985.7362   -667.07141     294958.2    14.640303 
  577000    2011.2067   -643.33106    307783.82    14.541376 
  577500     1971.731   -752.09009     303611.5    15.495359 
  578000    1912.2484   -746.28706    307334.77    15.473118 
  578500    1867.0537   -757.82493     294258.3    15.634287 
  579000    2043.0853   -752.58436    296595.52    15.492001 
  579500    1926.0105   -755.48495    303720.52    15.556007 
  580000    2024.6147   -755.14463    314924.82    15.474782 
  580500    1980.7892   -757.25219    293538.06    15.527147 
  581000    1952.2194   -753.49857    308112.67    15.592356 
  581500    1971.0433   -756.17284    292291.69    15.687151 
  582000    2035.0602   -752.23759    291671.94    15.694562 
  582500    1817.6053   -702.81713    302339.68    15.323894 
  583000    2011.9576   -708.77662    299464.22    15.124324 
  583500    1901.6835   -733.19331    294060.39     15.28243 
  584000    1989.9817   -681.27692    295536.31    14.955982 
  584500    1911.5309   -663.81861     299138.7    14.873202 
  585000     2171.237   -722.72511    298022.98    15.342353 
  585500    1957.2569   -756.47137    296085.81    15.671544 
  586000    2064.7907   -741.80868    302515.15    15.478179 
  586500    1893.0265   -750.94945    296050.43    15.397802 
  587000    1922.7314   -746.66342    312427.38    15.357459 
  587500    2030.8103   -752.01369    291993.98    15.470859 
  588000     1969.625   -746.95052    307937.25    15.490863 
  588500    2115.4469   -652.74529       302977    14.781387 
  589000    2036.6556   -606.46105    297021.39    14.588602 
  589500     2036.144   -605.35018    294750.75    14.541213 
  590000    2140.2445   -590.45459     311553.1    14.499502 
  590500    2006.6571   -665.40912     296557.8     14.78837 
  591000    1817.4379   -679.28671    308357.88     14.88131 
  591500    1950.8655   -716.58393    301958.58    15.273489 
  592000    2103.3187   -743.07356    293374.01    15.403283 
  592500    1908.4949   -719.11261    305619.93    15.047352 
  593000     2122.004   -719.09611    299293.16    15.284717 
  593500    1946.2604   -715.99447    302403.03    15.261623 
  594000    2041.4784   -724.38976     296690.4     15.32963 
  594500    1799.6548   -653.36097    302288.46    14.707342 
  595000    2125.6964   -720.18545    304376.87    15.277425 
  595500    2026.1208   -753.75163    309139.19    15.516203 
  596000    2007.8519   -757.61698    299909.33    15.563448 
  596500     2213.783   -756.82369    299116.96    15.663799 
  597000    1953.3788    -752.4316    293108.56    15.705095 
  597500    2109.4558   -758.26616     261895.3     15.71399 
  598000    1958.4968   -748.66396    312671.83    15.578338 
  598500    1984.4297    -667.1144    301700.73    15.054933 
  599000    1960.5569   -647.38609    295921.22    14.850085 
  599500    2025.1554   -651.68004    305760.39    15.023227 
  600000    1997.4482   -649.98824    309042.45    15.055934 
  600500    2021.6679   -703.27094    303797.43    15.309413 
  601000    2158.9499   -715.19081    295599.77    15.215692 
  601500    2098.2266   -714.55552     301439.7    15.214295 
  602000    1947.8473   -666.11318    309543.76    14.871902 
  602500    2061.0448    -632.0984    298620.38     14.76774 
  603000    2121.4783   -614.77551     307922.3    14.585337 
  603500    2067.5558   -634.54643    292914.35    14.822585 
  604000    1878.7745    -606.5652     290505.5     14.69091 
  604500    1967.9061   -605.34388    301781.93    14.620039 
  605000    2048.5973   -607.40411    291636.44    14.691291 
  605500    1841.9082   -640.74642     295117.1    14.909075 
  606000    2046.1741   -597.72403    302837.72    14.616868 
  606500    2042.2535   -587.35471    304491.98    14.583755 
  607000    2015.8285   -615.82694    291979.29     14.66174 
  607500    2004.8018   -587.95608     302832.1    14.575041 
  608000    2027.1584   -635.66546    298724.09    14.845448 
  608500     1941.695   -675.95154    300239.23    15.142782 
  609000    1973.1193   -647.77018    305427.43    15.051552 
  609500    2009.7941   -699.06859     301675.7    15.446503 
  610000    2126.6439   -688.23604    305370.57     15.41347 
  610500    1915.9374   -717.01851    287404.33    15.559555 
  611000    1909.7619   -724.54107    293885.05    15.309009 
  611500    1993.4347    -589.4129    308581.54    14.497533 
  612000    2123.5015   -602.64395    293365.36    14.586755 
  612500    1921.9842   -593.65026    294874.78    14.525839 
  613000    1971.4054   -624.66629    291808.65    14.466453 
  613500    2162.6367   -590.11743    308950.61    14.403068 
  614000    1937.0378    -687.3342    302303.32    15.170072 
  614500    2093.7542   -723.88366    294294.94    15.459185 
  615000    2119.3821   -714.46773    297534.02    15.421527 
  615500    1944.7196   -707.10522    296271.73    15.470203 
  616000    1888.0987   -702.77683    295826.21    15.415921 
  616500    2108.7263   -702.02557    303607.32    15.279763 
  617000    1869.4087   -711.93652    304379.92    15.358662 
  617500     2153.345   -618.36393    295538.16      14.7156 
  618000     2065.672   -594.04976    299238.33    14.542518 
  618500    2197.6026   -584.16054     312009.1    14.564276 
  619000    1909.0769   -614.31073    298019.83    14.662473 
[...]
14848500    1890.6584   -732.34475    301781.33     15.44658 
14849000    1895.6792   -745.30811    304528.12    15.557814 
14849500    1909.6107    -734.5693    290636.45    15.292206 
14850000    1969.8731   -696.41407    305874.89    14.931575 
14850500    1885.2662   -693.77679    308906.08    14.894668 
14851000    2082.2618   -687.58076    302803.47    14.862298 
14851500    1988.8557   -671.81194    299705.05     14.73749 
14852000    2071.5902   -656.72337    319307.53    14.589179 
14852500    2025.1199   -731.40321    294748.61    15.214743 
14853000    1895.4611   -662.43544    298202.98    14.763897 
14853500    1883.9676   -702.74873    299701.51    14.985399 
14854000     1912.906    -619.2487    310729.58    14.519101 
14854500    1942.7308   -631.17502    304740.53    14.590742 
14855000    2051.8985   -662.95431    303419.08    14.615471 
14855500    1719.4852   -710.07078    302459.72     14.95805 
14856000    1940.8788   -708.25407     302328.1     14.88556 
14856500    2051.5641   -712.63609    302883.01    14.839671 
14857000    1893.7548   -705.72863    306078.38    14.809749 
14857500    2291.9675   -695.32012    305917.37    14.750221 
14858000    1899.1328   -680.98501    286370.25    14.727421 
14858500    1958.6454   -719.76725    294860.21    14.868849 
14859000    1886.8343   -637.57235    295976.21    14.452177 
14859500    2070.3466   -716.75954    301065.35    14.885866 
14860000    1939.2999   -715.91504    301795.99    14.877502 
14860500    2095.4142   -719.08622    304376.01    15.001129 
14861000    1985.6766   -697.29759    296231.84    14.866142 
14861500    1913.9239   -671.94837    302430.96    14.610408 
14862000    2121.5827    -724.5815    301826.49     14.93722 
14862500    2025.9626   -704.57734    300056.43    14.781801 
14863000    1803.8355   -686.10958    300842.46    14.818818 
14863500    2098.2566   -682.81624    306712.62    14.808508 
14864000    1968.7398   -705.73002    287408.78    14.944297 
14864500    2093.0212    -693.2361    298652.58    14.894392 
14865000    1991.3402   -647.00294    303128.62     14.53656 
14865500    2167.6352   -649.84432    312639.58    14.540934 
14866000    2051.1462   -652.02359    304570.72    14.534633 
14866500    1716.7223   -724.60847    272409.25    14.960767 
14867000    2117.3945    -687.1315    304129.87    14.675574 
14867500    2097.2398   -680.83386    296126.78    14.690868 
14868000    2138.3839   -687.24261    294833.54    14.717053 
14868500    2045.3722    -711.0765    304202.54    14.894732 
14869000    2052.8269   -704.57065     302484.2    14.770949 
14869500    2122.2473   -703.66839    302278.89    14.847761 
14870000    1940.6557   -667.47159     295172.3    14.599626 
14870500     1982.552   -723.98538    306392.32    14.939023 
14871000    1905.0835   -723.41136    292040.27    14.922068 
14871500    1968.1106   -723.56359    298556.74    14.870046 
14872000    1801.1594   -692.39921    302360.97    14.697964 
14872500    1772.5899   -730.11192    292650.67    15.032641 
14873000    1908.5572   -683.36243    300711.48    14.695874 
14873500    1955.6176   -706.37594    306817.21    14.813561 
14874000    2030.1957   -706.53121     290491.6    14.842655 
14874500     1886.691   -690.56188     304199.2    14.716419 
14875000    2278.9274   -734.89872    294459.76    15.017705 
14875500    2012.9245   -683.14001    299153.07    14.689213 
14876000    1980.9917   -727.00293    307776.15    14.980889 
14876500    1932.0565   -660.71565    301181.72    14.554996 
14877000    2032.8509   -665.36128     305733.9    14.600361 
14877500    1963.9591   -686.27268    304694.32    14.783988 
14878000    2134.5303   -720.92011    302111.97    14.986449 
14878500    1938.0454   -664.37973     300258.9    14.644179 
14879000    1923.8619   -625.03047    306555.34    14.390013 
14879500    2275.0686   -696.89405    304755.96    14.793511 
14880000    2063.0479   -666.39671    301922.07    14.700201 
14880500    2057.7497   -664.24128    296436.72    14.735911 
14881000    2034.2569   -658.39945    292913.73    14.679762 
14881500    1926.6218   -683.90289    294603.66    14.794353 
14882000    1845.5733   -624.84868    296585.16     14.69083 
14882500    2073.0663   -739.98839    306974.76    15.496367 
14883000    1968.9558   -696.19272    301692.67    15.225926 
14883500    1927.4473   -703.53237    305409.35    15.199649 
14884000    2102.5297   -707.05884     300410.6    15.132189 
14884500    2177.4194   -667.83033    296195.21    14.877129 
14885000    1988.6344   -606.00693    303679.94    14.428151 
14885500    1854.4769   -632.42793    296316.81    14.542536 
14886000    1905.5088     -594.529    298131.58    14.433625 
14886500    2079.3024   -583.52585    297278.64    14.392702 
14887000    2116.4486   -579.64133    301781.66    14.429637 
14887500    2209.5666   -591.19707    302203.92    14.559682 
14888000    1982.2147   -659.49508    300862.09    15.098055 
14888500    2104.9549    -666.9849    299720.25    15.082184 
14889000    2224.2469   -651.34133    298212.68    14.820759 
14889500     1852.621   -638.30867    290956.29    14.828677 
14890000    2014.1937   -573.29351    306551.79    14.550791 
14890500    1938.6537   -666.13519    296787.99    15.066584 
14891000    2085.7954   -693.99129    298364.77    15.216019 
14891500    1887.4427   -671.34882    303101.67    14.843388 
14892000    2051.4287   -745.64462    300469.63    15.584914 
14892500    2011.3884   -730.69734    303889.68    15.339495 
14893000    2040.8802   -756.04934     299360.5    15.669555 
14893500    2083.0036   -757.11955    291174.78    15.578722 
14894000    1995.6291   -675.62256    303731.24     15.06263 
14894500    2128.3637   -677.76071    300309.67    15.037155 
14895000    1977.7667    -581.3137    298899.38     14.66119 
14895500    1965.6601   -620.48961    306553.42    14.794592 
14896000    1938.3192   -637.48451    295412.36     15.01595 
14896500    2104.8244   -655.19233    296585.93     15.31527 
14897000    2168.2062   -649.08791    298636.38    15.208805 
14897500    1908.4837   -667.29635    299276.88    15.272878 
14898000     1882.082   -715.57848    298616.49    15.814931 
14898500    1923.2048   -698.63255    293150.41    15.631371 
14899000    2048.9396     -709.103    299532.78    15.600691 
14899500    1941.0956   -657.34649    300240.15    15.338897 
14900000    1993.4353   -710.91146    297025.18    15.725364 
14900500    2109.8164   -591.59813       301789    14.714112 
14901000    1966.3046   -572.78953    298479.08    14.609528 
14901500    2042.0246   -589.89294    294424.56    14.607737 
14902000    2001.1321   -572.26438    313141.22    14.585491 
14902500    2029.3096   -594.48147    285712.37    14.618574 
14903000    1915.7019    -578.9812    300197.39     14.57888 
14903500    1884.4549   -586.94259    293845.21    14.618196 
14904000    1966.7183   -597.67374    293047.39    14.625002 
14904500     2122.717   -580.75732    303036.34    14.476581 
14905000    1845.1594   -586.50148    296943.33    14.592751 
14905500    1888.8526   -590.69198    291106.25    14.617137 
14906000    2073.1106   -585.98765    304215.96    14.560687 
14906500    2197.8896   -722.35597    305584.51    15.486893 
14907000    1910.7256    -733.4285    304278.76     15.52007 
14907500    2163.7159   -661.29459    301944.32    15.077289 
14908000    1982.8432   -713.67508    293590.91    15.402322 
14908500    1985.8984   -692.11316    303167.55    15.320968 
14909000    2008.4501   -711.18698    304206.35    15.356776 
14909500    1950.6353   -682.05261    297912.74    15.058227 
14910000    2160.0159   -669.95741    303139.84    15.075332 
14910500    2098.9842   -663.21077     299057.2    14.914677 
14911000    2008.2819   -673.99892    301469.91    14.913889 
14911500    2234.9675   -748.84731    308621.45    15.293791 
14912000    2116.8202   -747.64452    313166.25    15.360369 
14912500    1938.8217    -735.7496    308278.61     15.23933 
14913000    1914.3848   -663.38318    300209.13    14.930573 
14913500    2135.6194   -653.27146    298249.66    14.797453 
14914000    1894.1537   -643.44249    304540.55    14.610801 
14914500    1892.6883   -599.08507    284311.59    14.471973 
14915000    1966.0985   -690.89317     301342.5    14.940541 
14915500       2015.3   -727.55932    289318.17    15.260499 
14916000    2003.5993   -728.63853    304450.47    15.222845 
14916500    2125.6293   -749.85343    303541.07    15.592338 
14917000    1960.2196   -765.74365    278114.24    15.672785 
14917500    1954.3233   -750.75363    301487.97     15.70104 
14918000    1911.5343   -712.02297    297299.09      15.4791 
14918500    2060.2246   -758.41854    289225.13    15.813795 
14919000    1914.3458   -706.63045     298363.5    15.505921 
14919500    2005.9867   -735.47673    306702.58    15.512579 
14920000    2022.1122   -688.59453    302794.11     15.18937 
14920500    2085.8999   -697.26801    305994.77    15.066298 
14921000    1914.6188   -699.47148    302926.25     15.10475 
14921500    1918.0501   -686.53383     298580.3    15.193753 
14922000    2156.8936   -699.63604    301791.09    15.169776 
14922500    1937.6504   -692.36102    305132.76    15.028774 
14923000    2037.9328    -643.1489    299687.12    14.803203 
14923500     1943.324    -589.1137    315686.99    14.492241 
14924000    1725.1011   -668.72153    295022.23    15.153331 
14924500    1770.8563   -630.87168    296834.92    14.924648 
14925000    2059.6847   -611.15652    298741.71    14.755346 
14925500    2022.0236   -646.71721    306336.05    14.803502 
14926000    2008.4027   -635.36989    301797.17    14.743639 
14926500    1877.8516   -676.30618    295790.66    15.007093 
14927000    2022.4864   -757.68954    297850.79    15.711038 
14927500    1818.8399   -633.36872    305928.62    14.679765 
14928000    1945.9499   -702.01405    301219.06    15.047415 
14928500    1781.4233   -719.27882    295891.91    15.254997 
14929000    1853.6865   -742.81232    303017.68     15.47861 
14929500    1867.5871   -699.99571    308869.05    15.074943 
14930000    1993.3568   -762.04004    292360.77    15.763689 
14930500    2018.5311   -750.11349     301208.5    15.818248 
14931000    1784.5793   -681.29808    294061.91    15.128364 
14931500    2170.8887   -662.18154    305605.86    14.926694 
14932000    1761.6067   -628.01456    303043.97    15.028483 
14932500    1946.2386   -714.24857    298074.53     15.80563 
14933000    2018.8832   -739.46121    295017.77    15.956974 
14933500    1852.5916   -731.33927    290757.02    15.982509 
14934000    1965.4338   -735.34889    303755.18    15.790611 
14934500    1945.3393   -705.12954    298229.33    15.591469 
14935000    2047.6536   -683.67877    299992.13    15.439604 
14935500    1967.4789   -620.18231    298719.22    14.878033 
14936000    2165.8221   -660.97661    296453.63     15.11804 
14936500    1925.3494   -721.78424    302373.73    15.759209 
14937000    1951.2965   -662.57161    301061.16     15.14078 
14937500    2025.6019   -665.55693    296657.88    15.251564 
14938000    2059.1355   -676.68283     302674.5    15.224643 
14938500    2088.2507   -720.44406    297564.98    15.618836 
14939000    1936.0269   -743.49809     299552.9     15.78513 
14939500    2117.7681    -749.1451     304663.1    15.775854 
14940000    1769.2343    -749.1159     298740.2    15.678263 
14940500    1976.7147   -742.26712    300087.55    15.564851 
14941000    1895.4281   -733.69844    302432.52    15.409163 
14941500    1864.6431   -681.86175    301658.46    15.074551 
14942000    1973.6373   -673.92648    295624.63    15.108937 
14942500    2022.4748   -740.86025    307405.71    15.615609 
14943000      1782.98   -722.74342     275978.8     15.39292 
14943500    1975.8863    -762.5014    265986.35     15.64556 
14944000    1965.8092   -734.99887    299816.95    15.386477 
14944500    2169.7409   -734.99303    293616.82    15.400829 
14945000    2265.3721   -710.00575    304229.66    15.447425 
14945500    1791.4094   -660.47684    296490.93    15.122009 
14946000    2091.7508   -710.57773     303502.2     15.32839 
14946500    2041.8458   -742.88719    299810.69    15.509237 
14947000    1812.3475   -707.26633    303728.34    15.251686 
14947500    2213.5522   -723.63475    305468.57    15.372224 
14948000     2008.486   -702.16489    300649.99    15.312938 
14948500     1961.592   -624.39311    300915.55    14.715905 
14949000    1835.1238   -639.19197    295394.76    14.784951 
14949500    2169.7069   -685.95131    301359.63    14.916714 
14950000    2035.1493   -721.36608    279543.77    15.180127 
14950500    2053.3617   -712.65374    298954.86    15.026949 
14951000    1952.4211    -683.8293    306179.59    14.780698 
14951500    1855.1715   -653.57341    306444.05    14.641743 
14952000    1934.3541   -655.38893    300465.25    14.626334 
14952500    2150.4052   -660.07557    292973.61    14.667911 
14953000    2009.3516   -676.78058     298347.5    14.716821 
14953500    2103.0877   -646.88606    305402.42    14.649201 
14954000    2198.7263   -724.59018    294857.12    15.152218 
14954500    2155.3043   -689.02793    302977.16    14.964663 
14955000    2090.4422   -712.12124    302010.72     15.03092 
14955500    2003.8363   -750.63763    306206.67    15.403104 
14956000    2186.3671   -739.12909       303360    15.349135 
14956500     1902.855   -718.55753    307400.57    15.177479 
14957000    1788.3504   -740.35059     307309.3     15.26149 
14957500    2144.8356   -679.71617    296271.06    14.783955 
14958000    2150.3622   -709.75733    308807.84    15.006833 
14958500    1964.7006    -752.4257    305203.53     15.40022 
14959000     2019.269   -752.81297    314832.25    15.638619 
14959500    2051.3341   -743.81697    309210.75    15.351362 
14960000    2093.7163   -736.26189    308429.05    15.442592 
14960500    2013.5968   -699.55213    305513.35    15.200961 
14961000    1985.7428   -659.13427    297032.03     14.99832 
14961500    1906.5721   -654.69952    295440.41    14.974794 
14962000    2159.7582   -667.61965    301571.08    15.049006 
14962500    1874.5892   -709.82478    288455.91     15.31883 
14963000    1998.4619   -638.93042    300799.99    14.805051 
14963500    1958.8621   -666.51516    299834.22    15.100168 
14964000    1874.8237   -695.90479    296529.01    15.345935 
14964500    2003.4625   -711.06139    307843.98    15.335758 
14965000    1840.7595   -708.85794     308825.7    15.276039 
14965500    2005.3581   -748.41663    301612.49    15.536615 
14966000    2020.5835    -752.8559    310560.69    15.601275 
14966500    2072.0937   -705.11421    300112.39    15.071898 
14967000    1780.1013   -730.53876    295629.76    15.435344 
14967500    1821.6753   -744.39611    294924.39    15.401686 
14968000    1623.2273   -728.12258    299005.76    15.214566 
14968500    2013.8491   -751.10638    298487.84     15.64773 
14969000    1943.3136   -688.63477    300024.03    14.966665 
14969500     1857.564   -727.10095    299190.34    15.292413 
14970000    2003.8029   -710.07198       305727    15.307238 
14970500    1882.2155   -735.83492    299181.57    15.431485 
14971000    2037.3942    -726.6559    299869.94    15.226485 
14971500    1961.7309   -751.48282    298721.01    15.481799 
14972000    1923.4531    -712.8395    298332.34    15.416134 
14972500    2149.1334   -718.38332    306772.66    15.422543 
14973000    1844.5613   -642.82902    295446.08    14.815593 
14973500    1906.0347   -678.78172    299082.77    15.171009 
14974000    1956.5123   -652.99488    300244.56    14.934862 
14974500    2040.5315   -680.19843     297061.2    15.022651 
14975000    2088.3298     -685.145    299106.09     15.08642 
14975500    1941.7407   -734.37129    298484.79    15.410656 
14976000    2135.1592   -748.50362    301769.36    15.393351 
14976500    1861.7661   -760.05496    286536.91    15.538095 
14977000    2003.1092   -736.15753    280594.24    15.333553 
14977500    2046.3308   -729.05359    300274.36    15.257948 
14978000    1924.4149    -723.6916    298552.76    15.061083 
14978500    1779.8212   -685.65032    294130.25    14.732253 
14979000    1983.7016   -644.87792    289565.14    14.417569 
14979500    1894.6439   -620.17815    307519.57    14.401355 
14980000    1906.2248   -688.92059    299658.54    14.646157 
14980500    1919.4171   -723.60999     301118.1     14.95808 
14981000    2079.9529   -740.55784    298764.09    15.112646 
14981500    1900.0276   -679.78554    296296.37     14.66939 
14982000    2038.5822   -668.26418    304048.29    14.606683 
14982500    2014.7313   -692.24311    294623.82    14.713639 
14983000    2185.2475   -669.91504    306719.06    14.530301 
14983500    1850.9695   -671.35081    293701.22    14.817321 
14984000    2047.4198   -610.39579    316387.41    14.369827 
14984500    2026.6025   -617.38885    305550.81    14.434518 
14985000    1919.4671   -624.81659    305025.58    14.609795 
14985500    1954.1037   -672.71127    296939.95    15.086935 
14986000     1998.603   -632.50148    303946.47    14.748157 
14986500    2085.0746   -652.71918    300275.01    14.934354 
14987000    2051.3472   -659.82087    298999.32    14.833431 
14987500    1844.5979   -650.49058    301978.46    14.802422 
14988000    2104.1086   -656.36341    302094.41    14.864626 
14988500    1873.6181    -666.4425    303324.18    14.955047 
14989000    1877.2911    -632.3042    293285.28     14.52785 
14989500    1987.9751   -673.80351    297612.88    14.944878 
14990000    2108.9901   -669.99664    296238.56    15.207953 
14990500     1995.138   -673.48315    295383.43     15.19779 
14991000    1976.8747   -678.57547    302688.78    15.242208 
14991500    1950.0386   -637.77633    307013.48    14.967329 
14992000    2033.2147   -678.57106    301704.29    15.266561 
14992500    2166.4561   -687.45645    298925.29    15.287214 
14993000    1992.3432   -659.77892    299709.87     15.02323 
14993500    2052.5256   -672.43381    301855.76    15.265943 
14994000     1949.217   -706.98906    300638.46    15.484304 
14994500    2268.6717   -669.98541    304411.32    15.205382 
14995000    1861.9668   -652.83718    293418.87    15.050037 
14995500    1952.7403   -680.88179    304060.29    15.064785 
14996000    2115.9621   -662.74997    299969.27    14.880908 
14996500    1892.8843   -678.52412    297896.44    15.053654 
14997000    2045.8116   -676.00321    298376.95    15.276858 
14997500    1817.5013   -696.60122     294675.8    15.378946 
14998000    1943.9405   -618.64491     301892.1    14.703672 
14998500    1991.4909   -574.70054    317479.38    14.442442 
14999000    1998.2917   -582.83037    294383.03     14.45788 
14999500     1922.151   -691.29445    299869.97    15.411182 
15000000    2244.5942    -630.5242    302067.71    14.974119 
Loop time of 74489.3 on 6 procs for 15000000 steps with 250 atoms

Performance: 34.797 ns/day, 0.690 hours/ns, 201.371 timesteps/s
99.0% CPU use with 6 MPI tasks x no OpenMP threads

MPI task timing breakdown:
Section |  min time  |  avg time  |  max time  |%varavg| %total
---------------------------------------------------------------
Pair    | 3686.7     | 3791.3     | 3916.7     | 126.3 |  5.09
Neigh   | 107.62     | 108.17     | 108.89     |   4.6 |  0.15
Comm    | 846.07     | 982.86     | 1087.6     | 265.1 |  1.32
Output  | 519.96     | 519.98     | 520.07     |   0.2 |  0.70
Modify  | 69024      | 69034      | 69043      |   2.5 | 92.68
Other   |            | 53.13      |            |       |  0.07

Nlocal:    41.6667 ave 44 max 38 min
Histogram: 1 0 0 0 0 1 2 0 1 1
Nghost:    1173 ave 1198 max 1152 min
Histogram: 1 1 0 2 0 0 0 0 1 1
Neighs:    3632.83 ave 3996 max 3377 min
Histogram: 1 2 0 0 0 1 1 0 0 1

Total # of neighbors = 21797
Ave neighs/atom = 87.188
Neighbor list builds = 758075
Dangerous builds = 0

write_data	data.final.${p_id}
write_data	data.final.2
Total wall time: 20:41:34
