LAMMPS (8 Feb 2019)
Processor partition = 0
echo both

include         in.partitions
variable p_id world   0 1 2 3 4 5
include		in.temp
variable	temperature equal 2000.
variable	tempDamp equal 0.1 # approx 0.1 ps
include		in.pressure
variable	pressure equal 300000.
variable	pressureDamp equal 1.0
include 	in.seed
variable	seed world 74581 93734 128321 21934 495716 871038
units		metal
read_restart    Restart.lmp.${p_id}
read_restart    Restart.lmp.0
  restoring atom style atomic from restart
  orthogonal box = (0.032672 0.032672 0.032672) to (14.9673 14.9673 14.9673)
  2 by 1 by 3 MPI processor grid
  pair style eam/alloy stores no restart info
  250 atoms
include 	in.setup
variable	out_freq equal 500
variable	out_freq2 equal 500

neigh_modify    delay 10 every 1
include		in.al
### Argon Potential Parameters ###
pair_style 	eam/alloy
pair_coeff 	* * Al99.eam.alloy Al

timestep	0.002 # According to Frenkel and Smit is 0.001

thermo          ${out_freq}
thermo          500
thermo_style 	custom step temp pe press lx


restart 	${out_freq} Restart.lmp.${p_id} Restart2.lmp.${p_id}
restart 	500 Restart.lmp.${p_id} Restart2.lmp.${p_id}
restart 	500 Restart.lmp.0 Restart2.lmp.${p_id}
restart 	500 Restart.lmp.0 Restart2.lmp.0



timer 		timeout 23:50:00 every 1000
New timer settings: style=normal  mode=nosync  timeout=23:50:00

# NPT

include		in.dump
dump            myDump all atom ${out_freq2} dump.al.${p_id}
dump            myDump all atom 500 dump.al.${p_id}
dump            myDump all atom 500 dump.al.0
dump            myDcdDump all dcd ${out_freq2} out.${p_id}.dcd
dump            myDcdDump all dcd 500 out.${p_id}.dcd
dump            myDcdDump all dcd 500 out.0.dcd
dump_modify	myDump append yes
dump_modify     myDcdDump append yes



fix             1 all plumed plumedfile plumed.dat outfile plumed.out
fix             2 all nph iso ${pressure} ${pressure} ${pressureDamp}
fix             2 all nph iso 300000 ${pressure} ${pressureDamp}
fix             2 all nph iso 300000 300000 ${pressureDamp}
fix             2 all nph iso 300000 300000 1
Resetting global fix info from restart file:
  fix style: nph, fix ID: 2
fix             3 all temp/csvr ${temperature} ${temperature} ${tempDamp} ${seed}
fix             3 all temp/csvr 2000 ${temperature} ${tempDamp} ${seed}
fix             3 all temp/csvr 2000 2000 ${tempDamp} ${seed}
fix             3 all temp/csvr 2000 2000 0.1 ${seed}
fix             3 all temp/csvr 2000 2000 0.1 74581
fix             4 all momentum 10000 linear 1 1 1 angular

run             30000000 upto # 60 ns
All restart file global fix info was re-assigned
Neighbor list info ...
  update every 1 steps, delay 10 steps, check yes
  max neighbors/atom: 2000, page size: 100000
  master list distance cutoff = 8.28721
  ghost atom cutoff = 8.28721
  binsize = 4.1436, bins = 4 4 4
  1 neighbor lists, perpetual/occasional/extra = 1 0 0
  (1) pair eam/alloy, perpetual
      attributes: half, newton on
      pair build: half/bin/atomonly/newton
      stencil: half/bin/3d/newton
      bin: standard
Per MPI rank memory allocation (min/avg/max) = 4.003 | 4.005 | 4.006 Mbytes
Step Temp PotEng Press Lx 
14999500    2097.1996   -699.38475    308708.09    14.934656 
15000000    1812.7416   -744.86491    298018.81    15.416772 
15000500    1975.0275   -760.10147    283157.95    15.647085 
15001000    1994.8302    -711.6285    302822.23    15.106188 
15001500    2078.1494   -652.27223    296388.92    14.628659 
15002000    1947.9626   -583.70306    291857.61    14.456287 
15002500    2025.1714   -584.37512     305993.3    14.390732 
15003000    2004.4863   -597.26138    292964.84    14.436796 
15003500    1966.8546   -625.29136    304651.28    14.639338 
15004000    2159.2548    -719.9283    295740.83    15.145607 
15004500    1973.7015   -717.05568    300067.06    15.077183 
15005000    2047.9815   -682.49017    297105.93    14.968164 
15005500    2102.3527   -681.33434    299494.92    14.821298 
15006000     2118.065   -646.94321    297545.41    14.753465 
15006500     2013.915   -702.84785     297529.8    15.020171 
15007000    2052.3801   -719.59787    299250.96    15.270427 
15007500    2048.9496   -741.96441    302753.49     15.65181 
15008000    1922.2338   -700.30482     301963.5    15.167374 
15008500    1968.7593   -724.90025    297668.73    15.261088 
15009000    1967.2796    -740.6527    302761.21    15.367939 
15009500    1962.3402   -738.52395    300116.55    15.289196 
15010000    1897.7629   -723.29038    302939.47    15.151776 
15010500    1999.7794   -762.19644    290028.31     15.62298 
15011000    1811.2264   -738.33437    300268.54    15.502532 
15011500      2311.26   -749.40048    306419.46    15.538726 
15012000    2078.9565   -758.46294     299424.9    15.699227 
15012500      1980.45   -744.22028    295396.65    15.615045 
15013000     2235.525   -587.07271    298808.08    14.589926 
15013500    2064.9097   -676.83449    303835.12    15.219803 
15014000    2120.0195   -672.23915    298065.18    15.196346 
15014500    2115.2183   -682.33249    304895.55    15.209619 
15015000    1848.0769    -690.3701    299191.68    15.170355 
15015500    1851.0677   -654.70484     298226.5    14.853712 
15016000    2035.4658   -725.84947    307260.35    15.231679 
15016500      2135.52   -699.70454     309206.7    15.203979 
15017000     2040.289   -701.97353    304975.97    15.219155 
15017500    1904.4089   -711.85023    294344.78    15.439195 
15018000    2002.3957   -624.78359    305407.11    14.664788 
15018500    1884.5952   -640.20887    300650.52    14.842779 
15019000    2020.0559   -670.58729    298900.54    15.073387 
15019500    2020.2065   -670.85896     299714.4    15.101661 
15020000    2151.0883    -690.9705    302529.83    15.356932 
15020500    2039.3162   -647.78251    299739.54     15.11143 
15021000    2145.7684   -676.34663    299530.73    15.305406 
15021500    1926.2127    -659.6077    295837.74     15.22945 
15022000     2010.798   -716.49181       299239    15.684664 
15022500    2080.8318   -730.07938    303803.23     15.82382 
15023000    2024.0537   -629.82401    302992.49    15.055188 
15023500    1849.2694   -616.17166    301664.49    14.959827 
15024000    2035.3703   -670.67539     299255.2    15.407762 
15024500    2110.3111   -625.53796    306336.55    15.109396 
15025000     2133.382   -652.29369     300327.6    15.259149 
15025500    2023.8408   -661.27694    296930.03    15.233191 
15026000    1954.1346   -682.62454     305274.5    15.462864 
15026500    1869.0187   -658.65014    294884.34    15.292203 
15027000    2080.7833   -683.73384    299010.71    15.413824 
15027500    2142.7586   -703.80334    301773.21    15.660988 
15028000     1992.997   -634.57899    298412.41     15.24352 
15028500    1955.9302   -643.67663    298908.08    15.237726 
15029000    2072.5477   -639.98861    306885.83    15.120848 
15029500     1961.966   -703.09661    301630.74    15.465039 
15030000    2062.9815   -703.19823    302331.03    15.541446 
15030500    1877.7075     -709.863    299748.39    15.460644 
15031000    1958.8136   -702.52438    302355.19    15.429552 
15031500    1903.0716   -637.98246    297218.55    15.202489 
15032000    2110.0011    -642.5304    303328.26    15.146077 
15032500    2125.8093   -711.45934    297796.13     15.69361 
15033000    1890.3758   -643.11702    298961.08    15.170479 
15033500     2180.199   -682.22514    299349.57    15.384985 
15034000    1962.4848   -695.98203    301832.23    15.591312 
15034500    1943.6769   -656.80134    304968.31    15.191748 
15035000    2025.1517   -694.87483    297713.75    15.400944 
15035500    1927.8177   -695.36689    302835.96    15.300009 
15036000    2086.0022   -727.56876    299232.17    15.597428 
15036500    1961.8897    -686.6588    301977.25    15.321379 
15037000    2098.2146    -698.0895    300678.59    15.357391 
15037500    2029.4644   -705.84529    297728.11    15.453271 
15038000     2067.859   -703.56984    294830.67    15.482784 
15038500    1860.7634   -693.26249     296985.3    15.373146 
15039000    1913.8766   -651.24321    299980.38    15.121145 
15039500    2023.3056   -703.24466    301183.15    15.386156 
15040000    1865.5917   -665.95887    300153.46    15.221471 
15040500    2074.7564   -666.05262    296464.59    15.075603 
15041000    1963.0625   -704.96894    302331.38    15.272302 
15041500    2083.4962   -653.36484    304159.67     14.93067 
15042000    2026.4022    -722.0027     296924.4    15.421412 
15042500    2063.6226   -643.55162    301487.31    14.848771 
15043000    1940.0264    -633.9593    301191.16     14.87185 
15043500     2086.981   -695.37379    297231.51    15.421153 
15044000      2072.73   -711.59584    306070.35    15.291083 
15044500    1954.4012   -744.89621     291575.6     15.59088 
15045000    2032.6192    -704.0239    300009.94     15.04644 
15045500    2017.7337   -661.69596    305092.16     15.04888 
15046000    2060.2962   -695.40425    308817.08     15.26982 
15046500    1982.6953   -705.22073    304887.39    15.349007 
15047000    1983.8031   -657.33919    299120.53    14.861303 
15047500    1868.6726   -573.95216    311901.78    14.364963 
15048000    1992.6934   -574.13661    317628.34    14.223678 
15048500    2185.3569   -571.37158    325354.23    14.234527 
15049000    1941.5914    -585.7019    279820.11    14.235737 
15049500    1845.3815   -670.18411    291285.25    14.809228 
15050000    1919.6792   -656.35279     300704.3    14.653551 
15050500    1996.6386   -656.86271    300041.94    14.758288 
15051000    1929.7979   -669.03075    299167.91    14.756371 
15051500    2045.4509   -570.15283     322981.2    14.326076 
15052000    1848.3004    -698.6791    301096.06     15.14899 
15052500    2151.7367   -722.59047    306229.93    15.247651 
15053000    1813.9311   -724.67851    299521.01    15.301673 
15053500    1952.4467   -710.44411     303632.4    15.053425 
15054000    1933.9952   -750.98862    292988.35    15.365484 
15054500    2204.7895   -725.78194    307041.57    15.179711 
15055000    2213.2247   -721.93992    307095.31    15.313391 
15055500    2000.0097   -704.79382    301675.85    15.385977 
15056000     2083.888   -638.71315    306463.26    15.032685 
15056500    1903.8484   -688.24222    304027.07     15.35117 
15057000    2171.9311    -689.3303    301648.61    15.268605 
15057500    2041.6892   -701.00026    298847.27    15.467255 
15058000    2101.5682   -708.47811    303059.52    15.496862 
15058500    2144.1619   -730.59763    302043.94    15.625204 
15059000     1860.966   -712.79893     300221.6    15.596734 
15059500    2036.5671   -710.21946     303122.1    15.563317 
15060000    2015.1856   -704.05789    302342.19    15.557119 
15060500    1900.8198   -706.36857    300047.02    15.615008 
15061000    1787.2135   -676.43459    299096.12    15.254943 
15061500    1952.1743   -700.54574    295436.46    15.497738 
15062000    2117.5996   -634.65573    302144.23    15.045769 
15062500    2139.6256   -662.51821    299258.22    15.126188 
15063000    1970.9755   -695.77114    301068.27    15.354691 
15063500     1937.641   -714.83559    301517.24    15.384987 
15064000    1998.1828   -710.02308    306455.91    15.378516 
15064500    1921.4181   -698.22753    288625.69    15.268848 
15065000    2119.6968   -700.05269    292187.31    15.297788 
15065500    1992.2703   -643.35408    299076.97    14.764011 
15066000    2076.2289    -618.3979    298779.26    14.520982 
15066500    2062.1152   -691.17502    303446.96    14.970656 
15067000    2022.1456   -641.45465    302933.22    14.725787 
15067500    2069.1822   -659.49628    303372.27    14.969266 
15068000    1888.4933   -664.55227    297256.79    14.985858 
15068500    1871.3146   -650.63631    302527.36    14.875934 
15069000    1906.7936   -684.88892    296501.59    15.108636 
15069500    2132.1917    -664.1194    304593.12    14.918857 
15070000    1945.0524   -716.97877    295924.62    15.330119 
15070500    2077.0387   -740.03525    310005.53    15.335406 
15071000    1999.0868   -729.65843    308153.55     15.26044 
15071500     2023.601   -759.61529     302830.7    15.398467 
15072000    2043.3744   -755.56149    299934.08    15.358092 
15072500    2017.8492   -753.61046    295397.59    15.422665 
15073000    1871.4672   -698.34563    297298.68    15.066275 
15073500    2092.3794   -708.45261    305633.12    15.293323 
15074000    2085.7664   -712.90836     290778.4    15.410095 
15074500    1993.8246   -709.19582    279835.91     15.34291 
15075000    2072.2597   -605.67447    300698.56     14.57369 
15075500    1992.3827   -644.64497       293492    14.794861 
15076000    2044.5869   -581.32373    314615.45    14.487514 
15076500    1986.0465   -578.04767    299500.08    14.479173 
15077000    2108.1909    -617.5848    295254.58    14.400046 
15077500    2089.5657    -623.7593    303599.62    14.621131 
15078000    2137.6864   -655.77733    304343.82    14.725188 
15078500    1988.7013   -656.26496    298684.51    14.777995 
15079000    2009.7634   -674.21455    300585.62    14.981653 
15079500     1836.935   -706.67599    283548.65    15.353808 
15080000     2012.274   -705.99846    274354.65    15.434692 
15080500    1995.7366   -644.18403    298382.84    15.054573 
15081000    1679.8659    -628.5755    305445.66    15.053109 
15081500    2163.4033   -678.38545    300765.47    15.226952 
15082000    1838.6682   -666.32115    295924.89    15.142992 
15082500    2079.6687   -653.19068     304115.5    15.084467 
15083000    1985.5731   -655.25034    301661.66    15.135661 
15083500     1983.854   -731.88786    298193.14    15.579711 
15084000    2205.9567   -716.38739     303345.3    15.299891 
15084500    2254.3365   -749.64047    304728.54    15.498091 
15085000    2084.0156   -735.61569    300063.17    15.589333 
15085500    1999.9381    -718.5734    300746.93    15.416076 
15086000    2113.3973   -740.66284    298285.03    15.430993 
15086500    1938.8931   -693.76582     294527.6    15.114884 
15087000     1999.723   -727.17351    298498.46    15.419564 
15087500    2095.0133    -671.9395    298702.63    15.226405 
15088000    1793.5126   -660.57526     300538.3    15.109615 
15088500    2065.1799   -720.00201       296833    15.571013 
15089000    2006.1527   -675.50989    297913.38    15.165051 
15089500    2074.2876   -645.95472    300741.13    14.953738 
15090000    1945.1271   -689.61017    294024.25    15.486258 
15090500    1987.1631   -724.40507     297959.2    15.843436 
15091000     2088.557   -750.10053    303524.61    15.585629 
15091500    2024.8123   -754.26184    305081.74    15.732022 
15092000    2184.4464   -733.61387    303590.56    15.527293 
15092500    2043.2966   -746.09836    302403.51    15.634767 
15093000    1992.4182   -760.59844    277835.74    15.835967 
15093500    1828.0295   -679.79177    302409.85    15.200628 
15094000    1954.8666   -692.29633    299517.19    15.255355 
15094500    1926.9597   -676.39017     303447.2    15.217253 
15095000    1974.5057   -716.08228     301155.1    15.432806 
15095500    2087.9694   -573.41432    309596.25    14.630108 
15096000    1992.3621   -640.64195    297250.98    14.889774 
15096500    2032.6091   -736.62419    301189.72    15.787507 
15097000    1939.7684   -698.51576    299234.43    15.476147 
15097500    2145.2434   -732.02521     304147.2    15.673815 
15098000    2102.4414   -667.50072    301527.52    15.244824 
15098500      1820.52   -637.88751    299079.26    15.150937 
15099000    2155.0256   -633.07379    306757.07    15.154733 
15099500    2061.0818   -635.70052     297204.9    15.262878 
15100000     2063.158    -623.0174    303697.54    15.078326 
15100500    1781.1242   -726.90216    299554.03    15.881376 
15101000     2018.518   -744.92551    292073.33    15.894755 
15101500    1966.7581   -735.48518    303343.74     15.80955 
15102000    2026.4917   -643.46909       301900    15.076596 
15102500    1866.4546   -633.30489    299103.97    15.130487 
15103000    1917.8988   -614.64002    303418.87    14.904947 
15103500    2092.5774   -663.48754    301173.05    15.296734 
15104000    1868.0622   -644.82755    299970.78    15.265908 
15104500    1999.2806   -705.78241    295716.77    15.645003 
15105000    1907.1338   -682.61077    299205.97    15.478757 
15105500    1965.5755   -709.33741     298617.6     15.76128 
15106000    2036.8546   -613.69362    305600.98    14.880061 
15106500    1854.0664   -643.77664    302939.12    15.167466 
15107000    1966.6134   -654.14369    296679.71    15.312228 
15107500    2129.5428   -639.72182    300504.45    15.289046 
15108000     1908.047    -638.6818    300556.96    15.180919 
15108500     1914.286   -695.56645    295472.96    15.692768 
15109000    2090.3812   -700.48848    300433.75     15.37652 
15109500    2023.9275   -707.05721    286051.86    15.309878 
15110000    2052.0137   -604.87741    303621.23    14.616241 
15110500    2042.8016   -631.81443    292351.36    14.663511 
15111000    1989.9155   -662.75602    293335.68    14.826383 
15111500    1943.7476   -644.85391    288739.32    14.727793 
15112000    1863.2448   -608.30156    305489.75    14.540951 
15112500    2111.4482   -637.53567    314232.18    14.655563 
15113000    2064.5265   -652.72655    299790.67    14.724458 
15113500     2092.756   -652.40025    308026.27    14.698185 
15114000    1967.0007   -656.28054    301314.79    14.745956 
15114500    2020.8015   -652.15835    306755.44    14.719607 
15115000    1966.6717   -648.03459    297668.96    14.693663 
15115500    1963.8677   -638.62305    309614.03    14.655341 
15116000    1996.3861   -664.29622    291005.78     14.78498 
15116500    1992.4192   -659.35991    299633.87    14.734973 
15117000    1760.0512   -666.80196    294403.86    14.784206 
15117500    2004.6243   -715.62426    291315.19    15.211544 
15118000     2006.781   -702.07999    299966.82     14.95345 
15118500     1929.326   -715.00287    297072.91    15.030868 
15119000     2146.482   -668.42384    293243.92    14.753247 
15119500     1971.202   -751.23438    288043.19    15.363771 
15120000    1972.4708   -709.95705    303231.95    15.038339 
15120500    2102.8203   -719.85692    294253.71    15.177268 
15121000    2136.2378   -721.90696    298557.11    15.216986 
15121500    2263.6162   -746.84638    302150.73    15.489045 
15122000    2064.9918   -698.89748    300172.31    15.075625 
15122500    2053.1871   -655.79358    300278.36    14.739367 
15123000    2062.5779   -643.96199    299832.33     14.74399 
15123500    2173.0662   -646.93122    317802.03    14.630894 
15124000    1792.7928   -742.86358    301910.73    15.306538 
15124500    1755.6044    -706.6732    302797.53    15.067079 
15125000    2309.2173   -751.85595    297536.58    15.501659 
15125500    2066.4091   -681.20928    308668.25    14.898126 
15126000    2037.2432   -711.60392    296021.36    15.040653 
15126500    1822.9978    -721.0071    300449.13    15.173245 
15127000     2058.543   -728.54163    300502.68    15.222364 
15127500    2006.3355   -739.41121    308242.92    15.276158 
15128000     2275.066   -752.59323    300493.36     15.42125 
15128500    1969.4206   -749.40461    300280.61    15.352519 
15129000    1920.2127   -744.36938    297624.35    15.321086 
15129500    1958.6971   -713.95338    300228.28    14.946862 
15130000    2065.8204   -717.35197    300738.68    15.029093 
15130500    1937.8635   -711.61701    297758.66     15.06556 
15131000    1787.3625   -661.96861    292371.01    14.701778 
15131500    1987.0522   -714.30212    306821.27    14.930763 
15132000    2116.3648   -659.27789     301462.8    14.768285 
15132500    2178.9436   -744.60632    295663.89    15.308996 
15133000    1954.8735   -723.15879    293969.92      15.1668 
15133500    1960.7406   -751.48106    304696.31    15.371189 
15134000    1875.2508   -747.86307    305199.61    15.426973 
15134500    1906.2475   -750.68855    305144.01    15.384461 
15135000    1979.1749   -703.45714    301580.27      14.9378 
15135500    1941.2071   -635.79936    307847.67    14.581899 
15136000    1951.4902   -660.55156    305615.28    14.725599 
15136500    2149.8285   -685.22845    307119.84    14.869746 
15137000    2028.6791   -706.17564    303418.59    15.070604 
15137500    1988.0748   -720.68859    303024.86    15.084319 
15138000    2073.9433   -660.20041    320255.59    14.614167 
15138500    1820.1462   -720.81244    293119.98    15.145683 
15139000    1959.2525   -720.43063    301121.32    15.013562 
15139500    1996.6351   -716.58217    307407.63    15.039456 
15140000    1989.1133   -741.36796    302191.85      15.3052 
15140500    1941.5361   -749.56052    292952.74    15.364102 
15141000    1901.8685   -749.25894    280978.37    15.406191 
15141500     2085.391   -692.30587    305858.54    14.904329 
15142000    2155.8951   -703.22118    306969.17    15.018371 
15142500     1815.602   -699.69391    301124.37    15.019848 
15143000    1950.6506   -735.13136    302877.91    15.231932 
15143500    2002.6331   -753.74156    300844.42    15.462194 
15144000    1807.0283   -686.93314    303939.07    14.957134 
15144500    2045.9753    -754.9522    270446.82     15.44733 
15145000    2059.8302   -713.68176    295648.87    15.021835 
15145500    1960.0939   -738.23652    303414.34    15.216866 
15146000    2218.0862   -725.98584    298305.44    15.021402 
15146500    1857.2495   -718.16401    299472.53    15.003204 
15147000     2049.477   -681.86181    303820.74     14.75806 
15147500    1806.5382   -707.93736    299833.79    15.021214 
15148000     1888.419   -707.45639    300133.65    15.080689 
15148500    1849.0006   -704.16647     309321.1    14.933576 
15149000    2176.4227   -741.45283    298674.61    15.208976 
15149500    2031.3291    -677.0015    295081.91    14.713815 
15150000    2058.9441   -648.76113    314660.28    14.595126 
15150500    1976.8852   -724.69121    288000.47    15.068223 
15151000    2008.1735    -662.9234    302918.91    14.704384 
15151500     1897.285    -660.4199    287457.86    14.747072 
15152000    1902.0352   -626.49473    306948.39    14.576964 
15152500    1838.9912   -727.73182    297957.64    15.246497 
15153000    1978.1304   -744.37675    298493.01    15.360293 
15153500    1897.5244    -711.8034    304422.09    15.052199 
15154000    1930.5751   -702.03184    311935.32     14.87111 
15154500    1975.1778   -707.51024     296642.6    14.940636 
15155000    1920.6025    -712.5032    309394.38    14.982238 
15155500    2060.3593   -717.24247    293612.57    14.945142 
15156000    1958.8871   -741.46656    302430.19    15.236763 
15156500    2061.5899   -665.78688    288746.85    14.668018 
15157000    2044.6804   -739.01231    312259.54    15.296159 
15157500    2087.5787   -749.45449    294794.11    15.284309 
15158000    1890.0008   -747.35201    304740.97    15.345504 
15158500    2088.6184   -740.88418    306481.81    15.411228 
15159000    1928.0551   -642.05687    306797.12     14.66119 
15159500    1874.8953   -659.07473    299376.67    14.740099 
15160000     1943.591   -646.97269    304866.28    14.687011 
15160500    1992.3202   -659.03852    297676.86    14.785278 
15161000    2158.6788   -660.62051    295817.55    14.844579 
15161500    2248.5195   -616.25064     311040.2    14.533913 
15162000    2013.8829   -655.64328    295512.67    14.765037 
15162500    1904.2383   -647.26772    286097.61    14.719308 
15163000     2049.077   -659.62624    283206.73    14.772744 
15163500    2120.1688   -678.70414    304369.12      14.8903 
15164000    2015.1665   -665.47798    295080.32    14.799535 
15164500    1858.0663   -646.52155    302297.16    14.678826 
15165000    2060.5264   -688.52452    307146.24    14.905342 
15165500    2275.2334   -697.93425     308220.8     14.98613 
15166000    2018.7393   -679.43461     306838.4    14.772508 
15166500    1890.8534   -722.61858    300471.35    15.128889 
15167000    2054.1256   -727.08187    296803.18    15.186745 
15167500    1935.8349   -697.34828    296644.11    14.962425 
15168000    2065.1577   -710.03601    301419.84     15.04055 
15168500    1882.7035   -712.46557    298314.84    15.074464 
15169000    2075.4409   -662.91748    273860.56    14.723018 
15169500    1930.4047   -654.79797    306385.69    14.696919 
15170000    1827.2566   -678.28863    291816.97    14.828522 
15170500    2183.9687   -697.75326    303400.15    14.935598 
15171000    2031.5429    -670.3626    299142.67    14.773846 
15171500      2133.89    -657.8107    312132.72     14.65761 
15172000    1990.9748   -671.99851    298220.97    14.767352 
15172500    1851.1524   -707.35261    303400.64    15.075987 
15173000    2224.7514   -702.73781    304178.76    14.996695 
15173500    1973.6464   -704.50156    300004.54    15.022128 
15174000    1945.8659   -711.70151    295733.01    15.072911 
15174500    2078.8108   -736.44737    303848.66    15.264229 
15175000    1972.8007   -733.85545    302788.61    15.298759 
15175500    1980.0665   -651.58244    306211.28    14.711895 
15176000    2141.7646   -661.11627    300447.36    14.745814 
15176500    1970.5133   -714.68933    300297.48     15.11315 
15177000    2018.5116   -702.95455    288890.78    15.035812 
15177500    2092.3972   -697.86924    307180.28    15.073208 
15178000    2059.9749   -693.85428    300869.23    15.075727 
15178500    2071.0932   -725.98549    299804.52    15.331341 
15179000    2191.8877   -726.11583    303530.37    15.362799 
15179500    2152.6008   -635.32969    308737.74    14.712045 
15180000    1812.9878   -638.24755    300277.35    14.729895 
15180500    2041.4059   -740.47598     294157.6    15.560036 
15181000    2052.2428    -742.8803    305702.68    15.811334 
15181500      2161.94   -745.90843    301944.53    15.704321 
15182000     1989.292   -749.45553    301650.07    15.736323 
15182500    1917.6345   -683.99549    305051.91    15.115253 
15183000    2021.0277   -703.15927    300016.79    15.105778 
15183500    1838.8991   -716.37165    297799.53    15.237808 
15184000    1916.4046   -758.44192    294952.53    15.636018 
15184500    2173.6146   -690.92881    306384.04    15.043022 
15185000     2074.796   -656.82549    295011.28    14.863916 
15185500    2031.3677   -690.13091    303358.56    15.054629 
15186000    1896.0202   -713.88489    301579.84    15.200683 
15186500    1935.1411    -747.7674    297713.76    15.538785 
15187000    1930.9443   -687.94913    302344.42    15.068315 
15187500    1870.4677   -701.66499    296559.99    15.210172 
15188000    2173.0315   -718.75301     296313.8    15.281787 
15188500    1906.6558   -658.00906    289924.42    14.830331 
15189000    2023.3842   -624.24378    308326.91    14.661138 
15189500     1959.592   -597.54475    299361.76     14.68676 
15190000    1909.7055   -590.66372    302278.92     14.64263 
15190500    1848.5332   -593.64198    298444.83    14.661803 
15191000    2054.2002   -647.91972    296005.93    14.877812 
15191500    2023.5869    -671.3271    298340.15    14.974511 
15192000    1969.8467    -725.8211    299531.16    15.518888 
15192500    1993.5921   -749.38947    304012.39    15.678182 
15193000    2085.0957   -741.71373    301070.37     15.49276 
15193500    1962.0626   -667.43142    296501.64    14.824967 
15194000    2051.3565    -639.8281    300641.07    14.687122 
15194500    1988.2572   -641.87768    299429.47    14.767052 
15195000    1999.2407   -652.42159    293544.25    14.734342 
15195500    2158.9801    -639.7086    313848.58    14.666373 
15196000     2067.039   -635.48976    314241.79    14.661921 
15196500    2151.9289    -634.5522    306755.05    14.725779 
15197000    1894.4601   -711.93917    301898.65    15.352542 
15197500     2165.567     -750.135    303993.84    15.574156 
15198000    2024.0313    -754.2707    299326.04    15.633609 
15198500    2139.1547   -739.72702    307741.57    15.468818 
15199000     1931.563   -741.05335    300904.43    15.652431 
15199500    1968.1611   -694.61682     300414.1    15.147594 
15200000    2104.8955   -760.91679    290811.81      15.7599 
15200500    2041.9631    -734.1292    301551.03    15.494539 
15201000    2023.0601   -743.37902    300197.18    15.643875 
15201500    2054.5514   -719.35438    302947.18    15.459395 
15202000    2060.8544   -690.51274     299766.8    15.201879 
15202500    2239.4044   -699.06274    305525.76    15.162724 
15203000    2030.4078   -703.70653    297611.34    15.242155 
15203500    1923.1082   -686.71765    301139.49    15.170812 
15204000    2146.0224   -700.07782    302935.07    15.130152 
15204500    1982.9195   -688.30158    298527.77    15.078855 
15205000    1883.4559   -710.76888    291332.34    15.353422 
15205500    1808.6696   -695.34853       298590    15.126281 
15206000    1919.1347   -740.99335    298007.01    15.478319 
15206500    2073.8002   -752.69686       299237    15.619332 
15207000    2022.4099   -735.77865    311187.39    15.301679 
15207500    1972.6067   -748.00349    302479.21    15.431719 
15208000    1774.8252    -745.8297    294019.25    15.527124 
15208500    1845.7485    -749.2988    293447.73    15.548036 
15209000    2047.4039   -655.83748    299768.55    14.869365 
15209500    1993.8894   -637.11183    301339.36     14.79525 
15210000    2061.9819   -629.67333    308581.47    14.753439 
15210500    1921.1902   -641.64633    301524.31    14.767319 
15211000    1713.4249   -661.94604    294358.05    14.945835 
15211500    1828.2759   -597.04382    291697.32    14.550569 
15212000    1883.9459   -616.33029    293700.72    14.729922 
15212500    1973.1734   -664.72191    299634.42    14.984767 
15213000    2029.3273   -617.84544    303192.92    14.679085 
15213500    1959.6493   -623.27906    303276.85    14.723157 
15214000    2071.6112   -641.70788    296128.66     14.91571 
15214500    2019.6674   -701.29863    298337.46    15.418255 
15215000    1940.5052   -690.34066    301743.85    15.304689 
15215500    1884.3824   -705.81215    294109.22    15.443822 
15216000    2019.6712   -744.50328    302235.64    15.575655 
15216500    2080.5668   -736.87807    300193.67     15.38145 
15217000    2073.8777   -755.37066    307465.63    15.658906 
15217500    2022.4564   -731.62434    301313.73    15.361013 
15218000    1680.0113   -598.88769    291980.16    14.546468 
15218500    2189.4167   -596.26911     294886.6    14.565981 
15219000    2239.8654   -614.24082    313018.66      14.6062 
15219500    2165.2436   -642.94823    304752.93    14.736746 
15220000     1943.731   -677.71015    294447.06    15.225811 
15220500    2204.8408   -667.27611    301954.88    15.193037 
15221000    1897.7555   -663.26636    298921.55    15.107564 
15221500    1917.7523   -664.65437     299642.7    15.074207 
15222000    1988.5424   -589.60798    300576.97    14.602584 
15222500    1745.8764   -582.08117    299825.64    14.664492 
15223000    1929.3226   -678.79153    301314.86    15.323221 
15223500    1981.6091   -695.03311    303216.29    15.553578 
15224000    2017.4008   -691.47982    302451.86    15.579263 
15224500    1957.8286   -717.02927    298272.26    15.656657 
15225000    1975.5645   -641.71549    298599.56    15.084803 
15225500    2031.5643   -679.05223    299041.83    15.523745 
15226000    1959.6205   -691.37287    300568.72    15.515394 
15226500    1960.1992   -667.82811     299125.4    15.288145 
15227000     1963.007   -628.11625    300222.58    15.001884 
15227500    1950.4529   -687.96569    298854.84    15.546086 
15228000    1951.8476    -711.8947    297489.12    15.581254 
15228500    2004.4533   -636.72371    297158.09    14.901341 
15229000    1852.0346   -739.16037    292788.54    15.683504 
15229500    1868.4101   -718.91474    300344.42    15.461643 
15230000    1943.6816   -733.80365    298909.46    15.433023 
15230500    2016.8788   -728.08774    299800.03    15.327155 
15231000    2031.5789   -742.53887    306468.84    15.360062 
15231500    1879.1192   -739.46145    299303.51    15.519898 
15232000    1898.0175    -746.6107    295860.85     15.69006 
15232500    2076.7836   -754.07067    300000.46    15.603467 
15233000    2217.6348   -710.90879    307576.45    15.013318 
15233500    1720.3371   -753.57788    294756.32    15.576301 
15234000    2164.7102   -710.37676    307115.45    15.117703 
15234500    2129.3772   -727.79741    302841.32    15.252852 
15235000    1961.5235   -727.67917    303965.16    15.182741 
15235500    1977.1186   -742.02761    301921.84    15.418119 
15236000    1948.2112   -735.69731    301001.77    15.448042 
15236500      1872.25   -702.96552    295189.79    15.055132 
15237000    1916.4454   -743.86651    293448.48    15.369888 
15237500    1958.5834   -754.18606    299936.16    15.377307 
15238000    2108.7981   -755.24761    303055.88    15.335748 
15238500    2113.6311    -750.3876    294395.19    15.384919 
15239000    1985.2675   -741.07015    305581.41    15.359999 
15239500      1902.01   -751.08418    308475.97    15.410803 
15240000    1888.8721   -752.90866    303425.69    15.390238 
15240500    1959.9757   -722.46109    300337.64    15.116573 
15241000    1814.3151   -759.46621    300166.68    15.539365 
15241500    1935.8816    -731.1192     300085.5    15.240847 
15242000    2016.7544   -750.94728    293619.48    15.432637 
15242500    1871.9792   -756.83139    307805.58    15.494129 
15243000     2014.281   -749.42225    299174.69    15.416452 
15243500    1816.0988   -756.79297    298569.38    15.432838 
15244000    2058.7244     -721.542    303995.29    14.991589 
15244500    2039.4514   -725.77226    297693.29     14.95202 
15245000    1861.9304   -712.12508    303550.69    14.828681 
15245500    2150.6633   -707.47218    311709.38    14.812272 
15246000    1895.3293   -722.28112    304317.56    14.895919 
15246500    1772.5194   -694.80465    301204.55    14.858077 
15247000    2083.0671   -692.15903    294052.38    14.827265 
15247500    1901.3345   -685.51258    292606.31    14.834033 
15248000    1975.2107   -674.36519    293868.08    14.740536 
15248500    2124.0286   -681.52875    306067.51    14.728238 
15249000    1898.1831   -658.73738     295609.4     14.55528 
15249500       2189.6   -719.22035    305200.66    14.976499 
15250000    2086.0269   -645.85703    298412.55    14.522405 
15250500    1826.6232   -672.49246    302729.27     14.63005 
15251000    1968.3173   -711.47519    295735.16    14.856661 
15251500    2091.5205   -688.73841    297885.81    14.726342 
15252000    2005.1286   -626.09929    302469.49    14.392857 
15252500    1970.2381   -656.06337    303855.38    14.606078 
15253000    2063.5916   -685.17053    306123.48    14.724244 
15253500    1956.1707   -691.84154    305028.79    14.778748 
15254000    2092.1005   -705.10874    307976.39     14.81694 
15254500     1961.116   -715.89718    287018.64    14.837197 
15255000    1861.1056    -713.2608    306392.42    14.887957 
15255500    1897.2884   -664.94751     298424.6    14.579321 
15256000    2008.4171   -704.87169    305068.55    14.882064 
15256500    1790.4192   -666.22697    300265.47    14.635957 
15257000    1948.1182   -732.64088     288114.4    15.001993 
15257500    1949.8391   -674.57597    292735.41    14.666073 
15258000    2084.1715   -716.65048    307098.95    14.864304 
15258500     2062.448   -710.81668    302435.03    14.862223 
15259000    2133.4009   -661.22881     305532.5    14.632038 
15259500    2000.8733   -632.60105    313990.19    14.373491 
15260000    1987.6207   -633.84183    297006.02    14.472295 
15260500     1952.543   -689.09393    295122.36    14.931999 
15261000    1819.0529   -710.01509    305182.23    14.840942 
15261500    2084.9035    -720.4211    303267.54    14.865591 
15262000    1922.5125   -703.19184    287086.46    14.774037 
15262500     1961.058   -727.53636    292471.28    14.999757 
15263000    1904.5795   -674.47808    299130.05    14.631862 
15263500    1848.0537   -669.43594    306351.31    14.636483 
15264000    2142.4043   -708.67128    305883.51    14.816347 
15264500    1844.3926   -694.58044    302161.44     14.67292 
15265000    1867.7731   -719.43016    302647.93    14.893159 
15265500    1992.7306    -712.8745    311716.49    14.839461 
15266000    2029.2851   -669.53045    304494.92    14.629398 
15266500    1773.5936   -685.77966     300688.2    14.744488 
15267000    1885.2369   -695.19568    305615.21    14.724668 
15267500    2080.8468    -718.0628    307190.04    14.871234 
15268000    2143.5607   -663.16136    299288.01     14.56921 
15268500    1958.7707   -709.30574    296796.15    14.929248 
15269000    1989.3202   -677.51111    299870.89    14.665364 
15269500    1968.8489   -691.39729    297419.11    14.700669 
15270000    1884.1834   -715.58574    307754.44    14.848588 
15270500    1968.0086   -718.14227    286210.96    14.928507 
15271000    1952.7426   -652.29317    301880.73    14.499843 
15271500     2149.154   -657.60096    304654.19     14.54425 
15272000    2049.2143   -676.74523    300306.82    14.650391 
15272500    1997.5214   -660.11804    297896.28    14.614423 
15273000     2177.822    -648.2805    313343.67    14.575746 
15273500    2179.2386   -662.30813    303154.02    14.646297 
15274000    1987.6692    -639.9651    307042.54    14.645404 
15274500    1955.0074   -686.02473    290418.28    14.772762 
15275000    2123.4443   -707.39749    290625.62    14.984478 
15275500     2009.647   -705.57051    294210.77    15.003833 
15276000    1941.5913   -668.10684    303209.18     14.71508 
15276500    2139.7953   -714.80644    299552.51    15.027336 
15277000    2095.8022    -731.1087     307125.7    15.087811 
15277500    2029.4329    -720.4498    302007.38    14.973098 
15278000    2296.2898   -718.64492    300740.89    14.910927 
15278500    1971.9863   -660.09332    313546.58    14.543406 
15279000    2126.9378   -655.56023    298535.97    14.523383 
15279500    2053.4351   -713.46564    306120.44    14.913454 
15280000    1942.4902   -650.39507     295906.3    14.498915 
15280500    1840.4479   -719.77774    293836.55    15.022981 
15281000    1946.0363   -686.07468    304376.55    14.646498 
15281500     1915.616   -671.64281    297644.05    14.602132 
15282000    2079.4013   -659.98996    291451.83    14.590831 
15282500    2124.7057   -674.09651    297249.97     14.80652 
15283000    2110.8296   -705.01751    305413.42    15.081317 
15283500    2024.9011   -724.38305    307884.11    15.150855 
15284000    1992.4102   -700.85409     296436.3    14.967261 
15284500     2063.389   -710.33732    297597.14    15.034885 
15285000    2036.6884   -709.33514    303551.69    15.040951 
15285500    2048.0546   -729.73777    297400.37     15.20785 
15286000    1965.5629   -649.71827     294822.7      14.7768 
15286500    1942.1638   -649.58813    298289.02    14.820192 
15287000     1977.439   -654.26176    300484.74    14.912044 
15287500     1921.429   -652.22033    300474.27     15.02348 
15288000     1917.486   -668.36931    301664.04    15.110488 
15288500    2074.9874   -688.57459    303909.53    15.250565 
15289000    2087.5047   -676.46516    302839.48    15.153083 
15289500    2149.2595   -671.29624    301487.15    15.186927 
15290000    1899.7936   -635.52245    306888.51    14.864203 
15290500    1921.2042   -603.68096     287387.7    14.615367 
15291000    1828.8732   -592.44043     296112.1    14.550144 
15291500    1992.3453   -708.08725    296810.13    15.154708 
15292000    1915.2595   -703.45158    297584.57    15.216622 
15292500    2082.5047   -649.23817    300596.66    14.773015 
15293000    2159.8577   -665.45764    295571.71    14.961188 
15293500    2031.2956   -639.91858    296752.72    14.804831 
15294000    2036.4936    -633.0124    298609.63    14.709931 
15294500    2006.8639   -600.11818    302810.92    14.555218 
15295000    2080.1086   -625.83343    309478.68    14.668463 
15295500    2136.6644   -615.82287    303037.41    14.667445 
15296000    1928.3553   -713.69498    295103.01    15.250118 
15296500    1978.4313   -707.44436    297468.42    15.216171 
15297000    2042.0167   -705.66901    303479.44     15.10721 
15297500     1964.771   -705.17412     293620.6    15.206978 
15298000    1964.2032   -608.84585    293562.37    14.617056 
15298500    2154.1054   -652.96113     300235.5    14.818631 
15299000    1846.9446   -626.83107    299881.96    14.746212 
15299500    2042.7905   -624.21767    303468.53    14.730959 
15300000    1824.8462   -627.84048    293942.81    14.837886 
15300500    2016.3376   -645.84339    296418.21    15.157442 
15301000    2224.1362   -659.78615    302163.98    15.373574 
15301500    2061.1814   -696.22331    304641.23    15.586019 
15302000    2135.5309   -675.00715    300578.25    15.485846 
15302500    1945.6695   -646.27325    296497.88    15.135567 
15303000    1983.8235   -661.20765     295334.2    15.359035 
15303500    2034.4913   -633.39887    295544.68    15.167166 
15304000    1931.1726   -703.01383    298561.99    15.669266 
15304500    1995.8133   -727.36615     299397.4    15.602177 
15305000    2040.2927   -722.88694    302686.38    15.826252 
15305500     2154.378    -689.1445    301170.98    15.516288 
15306000    2070.6395   -711.28217    289871.06    15.779882 
15306500    2047.6496   -614.25267    297814.63    14.974071 
15307000    2115.2814   -651.18564    300028.82    15.333494 
15307500    1944.5915   -734.67982    300006.39    15.935354 
15308000    2099.7536   -697.16107    298492.97    15.719898 
15308500     2018.641   -634.97335    298569.21    14.958655 
15309000    2147.3591   -581.07102    301959.69    14.533786 
15309500    2102.7067   -673.69161    309106.56    15.070575 
15310000    2087.9401   -715.87734    302916.45    15.515232 
15310500    2100.4174   -742.02881    301036.72    15.813773 
15311000    2100.7172   -721.18659    301972.98    15.832825 
15311500    2032.4489   -645.83323    297076.41    15.288907 
15312000    1825.3578   -659.08731    299301.69    15.216123 
15312500    2069.0986    -717.1806    301244.75    15.673563 
15313000    1848.8053   -704.92698    291158.44    15.722409 
15313500     1868.216   -679.19458    305951.93    15.164382 
15314000    1955.1003   -710.32087    298778.21    15.625199 
15314500    2039.2571   -722.03076    295496.02    15.561278 
15315000    1939.5774   -745.09369     298214.8    15.635573 
15315500    2037.2731   -733.83476    298630.27    15.611173 
15316000    2066.1352   -676.71994    302515.91    15.079018 
15316500    1939.3791    -646.7322    291608.27    14.803242 
15317000    1875.3171   -653.79367    295306.82    14.832938 
15317500    2030.4792   -669.78152    296215.34    14.927861 
15318000    2043.6187    -702.9182    295275.78    15.142257 
15318500     2130.495   -695.71054    301741.19    15.118688 
15319000     1967.745   -744.53272    299744.37    15.504334 
15319500     2054.817      -645.47    304812.33    14.766189 
15320000    1986.7046     -667.304    300521.48    14.929659 
15320500    2037.5867   -732.66389    298666.43    15.391088 
15321000    1930.2822   -642.46342    302103.95    14.762315 
15321500    1961.2422   -660.99629    293941.63    14.837647 
15322000     1948.457   -640.14518    292856.31    14.778721 
15322500    2043.7985   -685.45368    301409.92    15.026607 
15323000    1995.0621   -696.13352    292823.06    15.017627 
15323500    2095.6555   -696.93669    301980.56    15.117089 
15324000    1933.6048   -679.77809    298689.26    15.079769 
15324500    2077.7875   -733.79647    299308.63    15.479042 
15325000    2133.7017   -723.71334    303002.49    15.337833 
15325500    1920.1614   -640.49045    297723.29    14.735873 
15326000    2058.8989   -646.97281    295102.71    14.844439 
15326500    2133.5218   -687.73303    300261.16    15.023488 
15327000    1787.4958   -761.66973    281662.45    15.840863 
15327500    2020.0304   -707.29906    298710.78    15.378105 
15328000     1925.075    -706.5276    302138.62    15.510949 
15328500    2118.0136   -719.54265    289617.39    15.817891 
15329000    1815.1234   -657.61458    296704.04    15.248781 
15329500    2023.1444   -706.87433     300083.6     15.64871 
15330000    1903.6584   -728.95043    299231.46    15.916828 
15330500    2050.7366   -737.00889    296406.01    15.913268 
15331000    2113.0254   -666.60524    301335.72    15.398402 
15331500    1892.8251    -627.3101    302152.69    14.984928 
15332000    1970.3012   -655.52939    298992.74    15.218631 
15332500    1987.5472   -682.34918    298300.28    15.424028 
15333000    2064.5658   -637.54102    304433.85    15.074312 
15333500    2058.5544   -691.56528    297213.22    15.338923 
15334000    2034.1105   -697.69153     302017.2    15.437892 
15334500    2092.7503   -669.90445    303127.75    15.269917 
15335000    2018.5004   -692.89154    297523.26    15.368347 
15335500     2037.103   -625.18804    305268.81     14.76843 
15336000    1874.6376    -668.9047    296979.57    15.024237 
15336500     1908.787   -730.26316    294280.79    15.600075 
15337000    2005.1364   -740.25767     289144.6    15.620119 
15337500    1945.8308   -721.12646    296326.93    15.561606 
15338000    2004.6376   -733.33229    300527.36    15.608073 
15338500     2025.075   -754.05005    288176.21    15.757011 
15339000    2102.2581   -711.42889    302866.18    15.401365 
15339500    2061.7562   -672.74158    305473.59    15.116359 
15340000    2124.9538   -664.34451    296956.14    15.214871 
15340500    1844.2097   -729.63213    304617.49    15.513123 
15341000    1886.4623   -729.97038    297554.17    15.536434 
15341500    1966.5762   -741.63438    288890.99    15.536985 
15342000    2134.6501   -668.08196    307439.41    14.743992 
15342500    2056.0857   -723.77222    298590.54    15.101757 
15343000    1993.1763    -686.7433    303251.59    14.860249 
15343500    2017.4223   -722.48075    303197.04    15.056927 
15344000     2085.569   -689.40202    299054.97    14.854422 
15344500     2188.187   -686.78131    306770.97    14.797625 
15345000    1913.6523   -708.61817    288302.54     14.92007 
15345500    2086.0863   -710.23509    308546.55    14.846022 
15346000    2103.5131   -715.32693    299680.89    14.872923 
15346500    1817.6447   -696.11818    307660.55    14.815372 
15347000     1964.413   -688.30143    292968.72    14.732307 
15347500    2109.2417    -670.9004    301239.75    14.700885 
15348000    2224.3817   -650.37863    290972.26    14.647943 
15348500    2221.6064   -668.16333     286694.7    14.665429 
15349000    2100.3404   -685.83241    302088.07    14.768696 
15349500     2110.941   -613.76665    316419.33    14.340347 
15350000     1989.247   -647.98638    304204.31    14.517578 
15350500    1945.6737   -720.29694    303018.15    14.959651 
15351000    2010.0596   -723.88897    301175.37    14.871222 
15351500    1944.5315   -680.19392    292217.05    14.680282 
15352000     1969.621   -711.03168    300170.32     14.93334 
15352500     2014.588   -695.74501    298239.98    14.762947 
15353000    1913.4786   -631.16377    302069.48    14.389587 
15353500    2021.6037   -672.92288    301434.42    14.705233 
15354000    2219.7258   -608.66257    310913.55     14.35268 
15354500     2065.947   -647.06474    306782.51    14.597284 
15355000      1940.01   -701.57121     288562.3    14.896516 
15355500    1903.8066   -706.84185    308389.13     14.91332 
15356000    2073.1958   -650.39454    309506.93    14.640091 
15356500    1954.1181   -694.34501    309603.26    14.853224 
15357000    1818.1681   -676.19994    297108.64    14.682481 
15357500    2034.6293   -647.41447    302238.22    14.565557 
15358000    2133.8902   -671.02537    309027.07    14.557666 
15358500    2245.1351   -720.00017    310199.51    14.912731 
15359000    1954.3176   -721.30537    291650.58    14.974749 
15359500    1929.8515   -682.29355    306415.86    14.593041 
15360000    1899.2405   -711.22031    297446.51    14.918122 
15360500    2065.1943   -640.09962    304086.63    14.502721 
15361000    2048.2068    -715.1265    306499.42    14.843663 
15361500    2059.0969    -665.9839    297920.34    14.609983 
15362000    2095.1963    -725.8513    306425.72     15.02862 
15362500    1937.9824   -725.10225    303097.96    15.034573 
15363000    2039.8034   -695.23444    292348.91    14.818809 
15363500     2222.064   -661.80869    303539.31    14.557946 
15364000     1837.358   -653.18537    277211.61    14.540658 
15364500    1966.4448   -694.81887    293022.53    14.820273 
15365000    1983.1865   -664.64963    301689.21    14.668198 
15365500     1906.033    -644.5508    306593.48    14.537112 
15366000    2043.7049   -724.00011    302487.74     14.96675 
15366500    2087.5507   -649.00082    303253.27    14.529697 
15367000    2032.8428   -657.31023     298765.3    14.656175 
15367500     2110.543   -689.34519    292914.12    14.715501 
15368000    1928.6006   -714.61823    304642.63    14.885022 
15368500    1985.2443   -698.35769    289926.29    14.772259 
15369000    1993.9416   -692.89537    308374.29    14.670141 
15369500    2096.9801    -704.4419    308482.74    14.875045 
15370000    1930.3495   -635.51813    301581.83    14.414376 
15370500    1960.0831   -712.96173    303483.47     14.85436 
15371000    2211.7399   -697.15846    303475.64    14.729604 
15371500    2049.4173   -720.22187    305389.25    14.893486 
15372000    2057.9434    -681.5306    296425.48    14.654122 
15372500    2116.4887   -674.11967    309277.75     14.61143 
15373000    1980.3595   -684.03038    306474.99    14.673419 
15373500    2076.7226   -715.64104    303460.31    14.909725 
15374000     1815.152   -715.78388    297738.59    14.895976 
15374500     1926.239   -684.69024    302289.65    14.651384 
15375000    1848.0564   -707.94394    305360.47    14.883811 
15375500    1877.4244   -716.40542    294814.29    14.856323 
15376000    2126.5536   -690.91039    302661.79    14.666208 
15376500    1898.2135    -640.1536    302405.44    14.446536 
15377000    2035.4062   -678.05883     304722.1    14.727739 
15377500    1913.4745   -674.34379    303944.22    14.619807 
15378000    1839.5616   -696.59654    302103.73    14.755428 
15378500    2020.8397   -702.60348    291258.98    14.840645 
15379000    1890.0768    -707.8207     300536.8    14.953018 
15379500    2024.7554   -643.15026    281779.78    14.510496 
15380000    1990.8924   -681.31236    296120.03    14.741937 
15380500    2121.0774   -727.80651    297569.25    14.967891 
15381000    1938.4132    -720.5251    294370.86    14.943824 
15381500    1981.3205   -634.18213     301245.6    14.397884 
15382000    2133.6944   -717.15605    310667.72     14.87567 
15382500    2007.3386   -720.13775     297108.5    14.866298 
15383000    1934.1458   -708.73507    305867.25    14.859433 
15383500    1915.5576   -647.01731    295418.03     14.51197 
15384000    2229.3844   -693.73307    295819.38    14.799984 
15384500    2146.7166   -717.44993     305423.5     15.09185 
15385000    1899.4655   -660.06353    290576.73    14.812438 
15385500     2076.499   -671.36245    300491.27    14.810798 
15386000    2228.1801    -692.2459    310872.92    14.868313 
15386500     1982.678   -711.11647    305782.69    14.977961 
15387000    2075.3552   -710.82139     297512.2    14.979576 
15387500    2051.5677   -748.67593    301397.89    15.516773 
15388000    1919.4102   -735.50205    296758.17    15.312765 
15388500    1856.7276   -726.51344    296835.54    15.220671 
15389000    1899.6336   -724.46186    296733.39    15.231901 
15389500    1907.8673   -654.52396    296734.18    14.814684 
15390000    2196.9774    -683.1341    300826.05    14.848052 
15390500    1901.0035   -722.05449     296891.5    15.120187 
15391000    1997.9841   -721.34786    299304.19    15.162072 
15391500     1981.693   -648.61974    302358.34    14.665651 
15392000    1915.8009   -709.67892    301881.06    15.058026 
15392500    2115.0475    -719.1499    306887.62     15.12395 
15393000    1984.4155   -713.92121    299593.13    15.183819 
15393500    2105.2621   -756.09126    296682.91    15.488787 
15394000    1763.6431   -652.51034    294582.09    14.714448 
15394500    1925.4352   -725.69247    302345.42    15.119615 
15395000    1914.1774   -707.46051    300099.23     15.03978 
15395500     1919.863   -734.42194    299254.89    15.243424 
15396000    1984.1301   -746.68354    301243.65    15.346813 
15396500    1756.7679   -735.69097    302708.33    15.296552 
15397000    1888.6673   -758.65365    294712.82    15.378501 
15397500    1926.8613   -750.73248    305264.16    15.316765 
15398000    1926.9944   -752.75279     294325.2    15.393712 
15398500    1927.4799   -627.28957    307666.11    14.352573 
15399000    2055.0017   -633.29004    298997.84    14.420491 
15399500    1951.4515   -620.57093    300449.46    14.467205 
15400000    1980.9533   -615.97945    312344.36    14.382358 
15400500    1830.0801   -570.80666    335063.73    14.216426 
15401000    2019.6227   -646.64847    301778.77    14.832586 
15401500    2012.2641   -681.63377    301481.11    15.134269 
15402000    2000.2366   -669.03985    299781.05    15.132364 
15402500    2053.6092   -678.18308    299384.41    15.106108 
15403000    1884.7858   -667.60801    298509.05    15.016303 
15403500    2049.0543   -722.63434    307588.86    15.222116 
15404000    2131.3282   -761.30022    310965.52    15.468254 
15404500    1973.6511   -718.50634    293120.02     15.04924 
15405000    1925.6277   -715.38252    294108.37    15.020431 
15405500     1878.798   -695.19341    293226.38    14.816732 
15406000    2029.2588   -715.51391     304864.8    14.911126 
15406500    1878.8793   -722.79877    283899.04    14.902659 
15407000    1890.0383   -705.41203    303093.82    14.780917 
15407500     2176.434   -727.71883    298771.65    14.906289 
15408000    1906.0882   -721.67561    299674.99    14.912519 
15408500    1996.6794   -719.44706     301186.6      14.8629 
15409000    1801.7479    -716.1901    278698.18    14.866598 
15409500    1736.9309   -703.13084    301932.54    14.716475 
15410000    1875.0632   -722.06654    299611.04    14.913575 
15410500    2052.4413   -676.41529    295146.69    14.685994 
15411000    2012.5414    -660.1502    305397.15    14.571445 
15411500    2183.1669   -669.54949    294835.17     14.60427 
15412000    1906.2823   -687.40865    289022.63    14.723666 
15412500    1939.5609   -721.23606    302872.05    14.943295 
15413000    1990.1463   -701.77536    299257.24    14.791598 
15413500    2074.9787   -728.76961    294609.94    14.980336 
15414000    1847.8508   -733.24599    292289.78    15.019927 
15414500    2056.3884   -685.49337    297450.88    14.652819 
15415000    1913.4937   -685.63047    299207.19    14.716797 
15415500    2056.4664   -695.97842    301945.22    14.721835 
15416000    2030.4992   -705.94195    297593.74    14.820817 
15416500    1872.7441   -656.76433    296593.64    14.751516 
15417000    1990.4518   -588.19786    301821.16    14.360065 
15417500    1940.7546   -589.95263    291427.37    14.440875 
15418000     2031.426   -629.77104    294843.47    14.691066 
15418500    2196.6127    -573.7983    330722.41    14.412621 
15419000    2033.0679   -585.82754    304558.15    14.564248 
15419500    1977.0514   -590.98101    297789.63    14.593347 
15420000    1982.5089   -594.02143    292396.56    14.666853 
15420500    2049.5099   -651.51626    300024.54    15.041663 
15421000      2105.86   -625.85661    304313.88    15.132269 
15421500    2226.3106   -715.31223    306497.28    15.593541 
15422000    2190.4246   -742.10627     301866.6    15.869769 
15422500    2006.1851   -725.14773    299075.86    15.955774 
15423000    1903.1702   -734.56892    300891.84    15.904742 
15423500    2129.1794   -688.72828    300098.35    15.516026 
15424000    1881.7265   -634.43061    304188.31    15.040659 
15424500     2114.623    -708.5315    301073.84    15.488322 
15425000    2015.4976   -703.51448    304576.75    15.350374 
15425500    2208.0322   -638.82724    309628.51    15.013713 
15426000     2064.035   -668.79186    300085.84    15.234944 
15426500    2090.0278   -727.09586       299400    15.594569 
15427000    1868.7323   -685.95739     302102.3    15.141801 
15427500    1814.0953   -709.13244    297600.44    15.402494 
15428000     2051.951   -665.76225    304232.87    15.026432 
15428500    2045.9361   -664.15891    303243.27    15.035878 
15429000    2077.9329    -651.7162    300843.81    14.869348 
15429500    1874.6958   -629.68833    307594.51    14.678451 
15430000    1961.0413   -717.72101    282920.49    15.395958 
15430500    1955.0291   -677.97152    298189.64    15.206818 
15431000    1913.0133   -686.19354    298488.73     15.28856 
15431500    1940.4126   -695.03339    297976.25     15.39258 
15432000    2048.4066   -655.64159    297829.87    15.118655 
15432500    2044.8417   -642.76136    302996.19    14.990342 
15433000    1999.3089   -622.63315    301090.27    14.743579 
15433500    2060.1489   -709.94307    298498.59    15.500751 
15434000    1887.0027   -674.53872    298214.03    15.149891 
15434500     2003.486   -695.21323    301290.79      15.3661 
15435000    1934.8617    -668.6736    296432.24    15.241622 
15435500    1976.5534   -687.29623    295271.81    15.416329 
15436000    2158.5679   -640.90479    299649.95    15.071452 
15436500    1881.0185   -681.34562    291712.26    15.389113 
15437000    2059.9341   -651.28705    303716.56    14.909555 
15437500    2050.1362   -727.46052    300439.62    15.388629 
15438000    2015.6465   -731.72502    300574.71      15.3465 
15438500    2246.4601   -718.89992    306628.46    15.090014 
15439000     2014.086   -712.32051    292639.87    15.076426 
15439500    1966.8245   -727.59544    302124.42    15.335902 
15440000    1942.3025   -749.41727    304418.07    15.433537 
15440500    1845.9088   -735.56954    297191.81    15.358806 
15441000    1938.9961   -655.24393    295719.17    14.773646 
15441500    2126.6343   -700.66816    296899.13    15.095499 
15442000    2009.7787   -756.57066    304224.53    15.609611 
15442500     2088.494    -740.6677     304307.4    15.478715 
15443000    1947.1908   -700.09925    298347.59    15.414588 
15443500    1889.0436   -658.92777    300225.86    15.099113 
15444000    2072.6247   -671.62107    302019.39     15.14729 
15444500    2016.6802   -663.91398    302955.23    15.079827 
15445000      2175.31   -658.81244    306233.15     15.16569 
15445500    2011.7465   -674.98638    294960.33    15.177897 
15446000    2049.1262   -668.89486    299359.91    14.972908 
15446500    1968.9586   -708.59326    306529.06    15.226688 
15447000    1897.7627   -724.51324    303868.42    15.232295 
15447500    1948.6438   -727.25007    303986.31    15.321406 
15448000    2002.4755   -700.66357    302894.31    15.200497 
15448500    2246.8054   -721.65032    307157.95    15.376247 
15449000    2220.9704   -748.11491    303968.07    15.535498 
15449500    1928.9179   -734.35959    300697.86    15.515916 
15450000    1842.9323   -746.68817    300675.68    15.537721 
15450500    1793.8561   -722.77441    299671.22    15.483213 
15451000     2086.271   -712.62712    301673.55    15.448642 
15451500    1989.2616   -691.12743    305597.54    15.270451 
15452000    1975.3735    -749.6982    284451.09    15.672139 
15452500    1983.7386   -709.57877    299466.44    15.440688 
15453000    1744.3045   -635.96229    305104.38    15.002467 
15453500    2133.0747    -740.7387    306372.91    15.559935 
15454000    1993.5858   -732.05098     300646.2    15.335673 
15454500    1928.8344   -596.92956    299458.95    14.644777 
15455000    1934.1402   -588.72939    295882.21     14.55964 
15455500    1720.0454   -586.65364     292025.7    14.523645 
15456000     1928.326   -589.01167    292266.54    14.503534 
15456500    1974.4492   -660.38411    299618.95    14.762239 
15457000    1821.4339   -645.85148     298791.4     14.67619 
15457500    2079.4697   -657.57702    298525.64    14.714071 
15458000    2059.5521   -690.36739    309008.78     14.87854 
15458500    2145.7027   -753.85302    285631.23    15.688307 
15459000     2127.574   -740.63058    293312.68    15.383961 
15459500    1939.5647   -693.25821    301185.71    15.120557 
15460000     1854.751   -687.96141    300710.99    15.105431 
15460500    2245.4882   -652.50734    300109.19    14.911883 
15461000    2183.9555   -644.62657    302982.47     14.88416 
15461500    2046.4554   -657.80243    297739.18    15.016713 
15462000    1986.5104   -664.91722    300270.08    14.917972 
15462500    1931.9829   -658.47093     297773.6    14.869764 
15463000    2130.7241   -684.50085    301698.32    15.070321 
15463500    2126.0836   -665.29503    296454.93    14.916308 
15464000    1918.6892   -677.74297    296246.39     15.12333 
15464500    1972.3752    -669.3594    297512.15    15.251954 
15465000    1898.0288   -666.18184     301019.1    15.207814 
15465500    1981.0845   -660.72757    295811.21    15.093993 
15466000    1999.2361   -706.46485    299782.83    15.447964 
15466500     2004.885   -718.03457    299804.11     15.56935 
15467000     2023.993   -597.27237    290860.07    14.683194 
15467500     2045.353   -597.71687    298243.41    14.540374 
15468000    1665.2556   -582.96031    287503.54     14.50175 
15468500    2166.3038   -594.86518    284406.88     14.41616 
15469000    1829.4984   -583.79494    286322.34     14.42933 
15469500    1792.7589   -734.86823    294973.15    15.418258 
15470000    1913.7839   -750.43878    303525.32    15.440513 
15470500    2095.9806    -738.0347    300344.37    15.291951 
15471000    2155.9788   -723.70872    300481.49    15.192084 
15471500    1995.8101   -660.84637    298992.51    14.709975 
15472000    2130.3504   -687.83788    304624.73    14.847274 
15472500    2091.7835   -659.59602    302691.32    14.665564 
15473000    1938.9629   -706.21923     296675.6    14.996256 
15473500    1940.5349   -697.32819    298211.31    14.874481 
15474000    2046.7907   -679.70568    305168.85    14.796157 
15474500    1960.7276   -682.41245    296782.89    14.745088 
15475000    1957.2373   -679.57924    288770.11    14.837015 
15475500    1935.7955   -676.93629    300384.33    14.670145 
15476000    1837.4297    -713.0116    305172.41    14.837986 
15476500    1981.0916   -712.50626    305654.13    14.850596 
15477000    2092.4552   -732.13645     287255.7    15.008358 
15477500    2082.8362   -712.28477    293172.47      14.8784 
15478000     1982.575   -693.85427    300520.41    14.850503 
15478500     1877.152   -725.70384     294161.6    15.018805 
15479000    1986.1315    -707.8006    286929.74    14.781319 
15479500    2186.5065   -699.03924    296734.07    14.774173 
15480000    1860.9052   -658.48305    298567.72    14.582488 
15480500    2005.1915    -693.3653    289492.98    14.742304 
15481000    2075.9803   -700.12093    302022.55    14.731277 
15481500    1866.1432   -697.16345    291370.18    14.740566 
15482000    2040.8665   -702.76295    303263.91    14.752433 
15482500    1965.8161   -706.51708    293804.18    14.778961 
15483000    2025.2412   -643.69265    292962.34    14.495749 
15483500    2044.8796   -715.85706    297627.05     14.88738 
15484000    2172.9532   -704.38852    300386.77    14.795505 
15484500    2014.5886   -685.91635    306269.58     14.66208 
15485000    2040.5057    -711.9601    302456.45    14.993851 
15485500    1950.6777   -747.02602    292547.06    15.392997 
15486000    1961.4592   -752.30434    305673.32     15.65589 
15486500    2077.6642   -711.08823    301760.38    15.163539 
15487000     2009.759    -741.7087     298562.8    15.317269 
15487500    2081.9738   -723.01548    302402.74    15.102372 
15488000    2043.2745   -732.42367    303164.04    15.357865 
15488500    1872.0236   -721.07865    302293.69    15.286086 
15489000    2087.5437   -731.34682    303651.65    15.307262 
15489500    2112.2214   -713.68079    299033.42    15.132739 
15490000    2048.8653   -705.48096    299917.24    15.115705 
15490500    1827.5397   -694.80356    303495.34    15.037243 
15491000    2065.8415     -615.391    295050.06    14.415045 
15491500    2179.0289   -591.22729    298327.99    14.410323 
15492000    1912.7234   -582.64433    292158.29    14.392107 
15492500    1820.8439   -595.30708    290596.41    14.447143 
15493000    2044.7042   -699.65716    287180.23    15.238312 
15493500    2132.9201   -690.94343    300505.69    15.161118 
15494000    2022.5279   -673.90756    296389.34    14.920434 
15494500    2011.0711   -656.73378    302582.44     14.76531 
15495000    2161.2526   -666.65876    298220.77     14.86007 
15495500    2019.9129   -634.00669    297609.61    14.551493 
15496000    1956.1055   -592.33265    296145.67    14.376157 
15496500    1848.6321   -614.73324    304281.99    14.544467 
15497000    1971.7186   -598.56344    291983.02    14.520431 
15497500     2120.525   -644.60586    296240.83    14.849525 
15498000    2013.7891    -640.5015    300770.29     14.82633 
15498500    2181.8042   -710.36489    310529.34    15.288394 
15499000    2027.2643   -730.68153    300574.16    15.314986 
15499500    2003.4106    -716.1669    307964.73    15.249193 
15500000    2086.0439   -652.76844     302748.1    14.906723 
15500500    1958.6604   -667.27207    299639.47    15.095565 
15501000    2100.0219   -655.83362    301827.55    14.874888 
15501500      1947.75   -665.76748    297066.73    15.039501 
15502000    1883.1025   -670.37177    301136.24    15.094559 
15502500    2244.9754   -663.93281    303923.64    15.036207 
15503000    2116.6813    -743.2588    313946.06    15.564569 
15503500    2007.7359   -670.03346    297808.41    15.156747 
15504000    2148.2038   -654.18962    303015.48     14.90421 
15504500    2002.4352   -648.74971    303869.32      14.8789 
15505000    2153.2132    -634.6736    293280.66    14.466466 
15505500    2083.8757   -694.93192    301973.06    14.936869 
15506000    1943.6193   -735.47539    306608.55     15.26781 
15506500    2111.9893   -747.47088    304339.37    15.321294 
15507000    1861.7639   -724.92301    292449.45    15.239024 
15507500    1826.0552   -720.15671    304011.43    15.203035 
15508000    2100.0419   -730.75659    295643.98    15.250124 
15508500    1854.6512   -743.77332    311732.57    15.360535 
15509000    1981.9446   -742.64512    294411.83    15.356238 
15509500    1957.5129   -669.01629    300280.66    14.703887 
15510000    1963.3911   -650.97313    304896.82    14.626222 
15510500    2182.3535   -675.48891    298251.67    14.694812 
15511000    1987.1786   -673.34704    299941.12    14.711284 
15511500    2041.2745   -662.31283     298588.7     14.69357 
15512000    1946.3001   -653.36498    294714.18    14.597755 
15512500    1907.4919   -620.37656    299990.03    14.495457 
15513000     1953.675   -572.40957       339353    14.203351 
15513500    2002.7839   -597.21166    300429.82    14.337154 
15514000    2027.8014   -753.31068    276269.35    15.421601 
15514500    1950.1135   -744.02589    306027.16     15.27203 
15515000    2024.4517   -751.64473    301053.51     15.40025 
15515500    2295.8612   -757.47606    307036.06    15.610422 
15516000    2022.1746   -722.91887    298052.56     15.35943 
15516500    2009.7287   -730.45707    301827.91    15.260111 
15517000    2126.5411   -719.47679    300435.96    15.180395 
15517500    2142.2766   -699.92444    304012.93    14.976918 
15518000    2063.9077   -700.48624    302512.37    14.957321 
15518500    2057.8694   -735.94554    300100.34    15.264703 
15519000     2126.923   -755.90162    294435.61    15.623604 
15519500    2017.6956   -738.10412    295593.63    15.380043 
15520000     2067.083   -736.53153    298727.39    15.752517 
15520500    2039.0255   -750.58436    289616.16    15.854769 
15521000    2050.8378   -724.96369     298707.6    15.541065 
15521500      1945.34    -699.7256    302678.97    15.347825 
15522000     2012.282   -654.97074    302504.38    14.992634 
15522500    2103.7323   -656.59514    297667.29    15.119051 
15523000    2008.1273   -724.65589    302332.89    15.531359 
15523500    1879.8669    -691.3866    298075.57    15.304283 
15524000    1997.8164   -657.20476    296030.69    15.003574 
15524500    1919.1366   -614.17319    293321.38    14.778194 
15525000    1882.4712   -626.96804    301260.22    14.938331 
15525500    2033.3814   -620.31961    309013.11    14.934782 
15526000    2067.6363   -725.00466    294514.33    15.810658 
15526500    1951.3175   -643.39637    295939.07    15.157733 
15527000    1852.4223   -668.12696    300607.36    15.329553 
15527500    1845.3336   -657.88698    293076.88    15.246965 
15528000    2044.7609   -688.34705    302191.54    15.302864 
15528500    2020.6092   -676.76615    293795.79    15.362219 
15529000    2008.5232   -660.74978    299870.67    15.117372 
15529500    1952.5095   -682.71833    305567.13    15.280141 
15530000     1904.221   -704.41573    296990.21    15.287306 
15530500    1912.6611   -692.14794    297177.81    15.222421 
15531000    1939.5149   -723.65633    298439.22    15.550135 
15531500    1982.3277   -713.19604    302731.18      15.4735 
15532000    1862.6002   -713.54358    302342.71    15.443508 
15532500    1876.0386   -691.02515    301902.34    15.280418 
15533000    2136.0362   -704.89954    300926.54    15.429131 
15533500    1949.2661   -637.22976    299586.01    14.911906 
15534000     1936.475    -648.7658    292459.93    14.734018 
15534500    2133.3295   -647.79948    293041.17    14.674673 
15535000    1999.4134    -645.4832    303855.95    14.729073 
15535500    2011.1784   -678.70109    300304.92    15.198395 
15536000    2128.6381   -634.95788    307013.53    14.894039 
15536500    1883.9527   -662.42253    300099.04    14.993406 
15537000    1917.4608   -648.43976    300433.15    14.824032 
15537500    1986.6752   -663.05885    297217.68     15.07271 
15538000     2077.479    -668.9643    298690.54    15.105053 
15538500    1894.2118   -671.14232    296963.67    15.030366 
15539000    2079.4272   -613.91516    306432.96    14.623155 
15539500    1995.3366   -597.48149    298641.98    14.368428 
15540000    2116.1198   -611.29262    294296.61    14.474399 
15540500    1893.8741   -670.74846    298337.47    14.912342 
15541000    1808.2231    -735.6873    294677.51    15.375472 
15541500    1973.2937   -758.88497    302497.09    15.522693 
15542000    2022.8797   -720.90256    308671.14    15.160875 
15542500    2147.4753   -708.35294    309331.68     15.09372 
15543000    1979.7099   -668.77054    296763.51    14.908394 
15543500    1910.4014   -642.63137    301320.86     14.71907 
15544000    1936.1177   -728.17818    306144.88    15.348529 
15544500    1829.0293   -714.84242     302725.5    15.349734 
15545000    2107.0018   -704.47264    297355.32    15.425742 
15545500    1946.8245   -694.77427    302957.57    15.327911 
15546000    1889.5174   -708.98217    300956.85    15.480623 
15546500    1893.9958   -711.96956     297437.9      15.5467 
15547000    1845.9961   -720.16518     296083.5    15.663176 
15547500    2082.0944   -703.38879     304214.7    15.534409 
15548000    1992.3767   -705.22646    298927.28    15.594714 
15548500    2088.9975   -710.17584    299962.43    15.528899 
15549000    1906.1358   -713.31036    301290.37    15.533512 
15549500    2076.7268   -678.53281    300095.26    15.268712 
15550000    1979.3282   -680.21632    298710.13    15.333973 
15550500    2173.1122   -657.95859    307597.73    15.035908 
15551000    1918.3227   -699.96037    295938.39     15.43036 
15551500    1933.2789   -699.70494    297286.38    15.322818 
15552000    1961.2666   -682.93713    301049.36    15.307415 
15552500    1910.6396   -672.74452    299955.24    15.126233 
15553000    2039.9706   -581.57588    304782.31    14.640931 
15553500     2038.403   -662.23185    297849.03    15.089979 
15554000    2092.6196   -716.63838    304912.39     15.41331 
15554500    1965.6226   -710.92216    294290.02     15.38163 
15555000    1974.7528   -721.93786    302915.19    15.377915 
15555500    2086.7301   -717.50684    308709.75    15.277602 
15556000    2070.2721   -721.29081    303737.21    15.230685 
15556500    1980.6071   -749.50863    299867.25    15.705167 
15557000    1767.3757   -735.15615    295345.88    15.638765 
15557500    2044.8252   -738.78794    300060.08    15.626581 
15558000     1902.556   -727.27056    300482.88    15.549528 
15558500    1930.0997     -726.405    301063.96    15.462631 
15559000    2043.6066   -694.00952    302593.04    15.290834 
15559500    2003.8271   -693.19674    296704.17     15.44851 
15560000     2131.465   -590.88898    300495.08    14.753137 
15560500    1897.6532   -594.51427    301374.07    14.836897 
15561000    2036.9206   -597.63735    301755.86    14.706579 
15561500    1874.1413    -646.8821    299454.78     15.18188 
15562000     2124.372   -716.29788    305428.25    15.658274 
15562500    2085.7229   -696.55623    301225.54    15.515523 
15563000    2009.0366   -703.04952    300238.75    15.522953 
15563500    2036.4949   -650.84696    298574.25    15.089562 
15564000    2005.0075   -709.29127    300078.82    15.451642 
15564500    2002.6526   -680.97984    303343.35    15.256803 
15565000    2072.0549   -657.06822    305500.11    15.164334 
15565500    1818.9782   -721.26872    300290.54    15.577209 
15566000    2030.6615   -711.83202     304779.7    15.469251 
15566500    1949.9681   -683.60739    303239.64     15.31733 
15567000    1867.1131   -700.91718    301572.23    15.375884 
15567500    1847.3241   -694.52702    300197.57    15.350847 
15568000    1956.9564   -675.30964    301839.88    15.205066 
15568500     2050.088   -704.06648    299341.79    15.422615 
15569000    1932.9962     -716.112    307194.79    15.366313 
15569500    1986.0982   -634.84254    298076.29    14.806615 
15570000    2012.6434   -652.62075    301688.71    14.814838 
15570500    1935.0911   -656.10372    297960.42    14.758922 
15571000    2149.3149   -693.85653     303802.2    14.970824 
15571500    1997.2711   -682.92329    304780.55    15.030708 
15572000    1910.6151   -667.61493    293913.97    14.894581 
15572500    2158.0129   -664.37773    298439.04    14.854963 
15573000    1932.1906   -663.60679    302264.76    14.907399 
15573500    2023.1218   -698.87386    304490.91    14.923363 
15574000    1909.1158   -746.22613     298925.4    15.481093 
15574500    2136.6102   -752.45792    288793.85    15.477466 
15575000    1867.5463   -746.09448    299462.63    15.356193 
15575500    1882.4126   -749.17058    300235.19    15.389847 
15576000    1877.9064   -746.19803    278169.77    15.417427 
15576500      2313.04   -712.63421    302534.54     15.09338 
15577000    2015.1718   -695.79497    303123.27    14.982098 
15577500    1954.5028   -724.35944    297339.89    15.196919 
15578000    1937.1421   -616.57251    305984.96    14.410204 
15578500    2118.8791   -629.66612    298545.16    14.413714 
15579000    1845.3857    -670.0403    312863.35    14.536762 
15579500    2174.1971   -722.24622    295919.27    15.124988 
15580000    1915.9815   -726.00592    297088.77     15.04657 
15580500    1889.8882   -712.23158    310604.59    14.936061 
15581000     1904.064   -661.10649    310929.61    14.538065 
15581500    2071.9401   -675.99129    296367.07    14.687817 
15582000    2086.6634   -630.26462    305345.57    14.411815 
15582500    1808.2836   -649.65543    289220.75    14.467693 
15583000    2166.6856   -642.14255    289164.92    14.408553 
15583500    2080.9704   -635.24556    298632.25    14.386237 
15584000     1938.533   -646.34279    291200.24    14.609571 
15584500    1930.0875   -659.87308    300014.35     14.65942 
15585000     1911.984   -677.95217    300938.94    14.661599 
15585500     2006.163   -733.23804    290622.94    14.939827 
15586000    1851.9781   -700.61453    290601.68    14.684909 
15586500    1999.8309   -672.56546    304466.38    14.570178 
15587000     2147.801   -696.60261    292303.14    14.695848 
15587500    1703.3709   -674.55906    298221.56    14.678461 
15588000    1991.6902   -680.67742    306919.46    14.586083 
15588500    2119.9436   -687.69371    297803.22    14.782417 
15589000    1980.6233   -679.22087    296786.85    14.657443 
15589500    2115.9361   -693.24493    298810.53    14.656311 
15590000    1837.4148   -666.62005    306918.21    14.624067 
15590500    2018.7274   -694.72082    294517.55    14.779521 
15591000    1769.1136   -731.25207    302571.84    15.289427 
15591500    2260.3135   -741.10488    278933.64    15.414221 
15592000    2113.7917   -738.41015    302283.67    15.345337 
15592500     1867.437    -725.8521     299721.9    15.151158 
15593000    1945.2536   -736.13819    299999.42    15.427288 
15593500    2205.6174   -597.09311    289862.14    14.600373 
15594000    2046.3814   -664.91963    300621.08    14.989198 
15594500    1992.8892   -725.80785    300147.43    15.341756 
15595000    2105.1276   -656.67474    298032.26    14.879549 
15595500    1869.5887   -647.38642    303611.18    15.075765 
15596000    1898.7634   -680.41744    298485.54    15.305278 
15596500    2056.4436   -626.59576    304255.95    14.715975 
15597000    1930.5989    -644.5536    301208.08    14.604629 
15597500    1966.8213   -609.01513    299834.09    14.467521 
15598000    2100.2295   -712.38902    294557.22    15.270451 
15598500    1941.5715   -704.82965    283022.84    15.229806 
15599000    1771.6904   -697.19096    284456.86    15.207766 
15599500    2079.3056   -715.96584    310173.43    15.282545 
15600000    2070.1383   -616.53045    307431.32    14.555276 
15600500    2060.6524   -584.08195    296614.37    14.403536 
15601000    1915.6971    -624.9291    298468.59    14.716792 
15601500    1997.6264   -629.89825    304632.58    14.639254 
15602000    1988.3969   -665.84185    297857.02    14.959967 
15602500    1966.3572    -669.6511    295282.12    14.961802 
15603000    1920.5777   -676.96072    294791.99    14.807026 
15603500    1855.4575   -660.17264    299259.89      14.6949 
15604000    2165.2801   -650.44342       300200    14.515768 
15604500    1915.7034   -665.49695    298772.67    14.928863 
15605000    2107.4287   -699.21455    306717.13    15.096029 
15605500    1858.7718   -663.13252    297853.79    14.780177 
15606000    1917.8744   -650.22279    302247.29    14.681813 
15606500    1898.9049   -645.90829    298839.42    14.803005 
15607000    1990.3435   -635.86512    306618.28    14.851907 
15607500    2014.5071   -704.17395     303566.6    15.561404 
15608000    1907.4656   -656.64927    295930.48     15.35632 
15608500    1985.4624   -621.89619    299158.92    14.869616 
15609000    1948.1402   -571.80886    307918.69     14.60446 
15609500    2056.5555   -670.26931    296969.34    15.422475 
15610000    1939.5927   -709.43826    298277.59     15.69644 
15610500    1930.5435   -616.15844    303544.73    14.913489 
15611000    1976.5917   -615.36683    299511.38    14.799775 
15611500    1981.6348   -674.68818    303538.01    15.256869 
15612000    2109.6607   -696.61809    298478.44    15.451571 
15612500    2038.7567    -649.5006    298911.72    15.142566 
15613000    1967.3437   -676.82784    294627.71    15.206728 
15613500      1911.98   -725.32088    279973.37    15.341028 
15614000    2069.2234   -720.04995    306405.07     15.24995 
15614500    1915.8066    -737.9567     304372.6    15.254637 
15615000    1857.8874   -722.72724    304070.59    15.257422 
15615500    1805.0719   -736.32152    300000.54    15.400678 
15616000    1937.9687   -754.20821    300551.94    15.416543 
15616500    2028.5024    -743.4448     306047.8    15.346608 
15617000    1945.2581   -759.79581    270276.73    15.478937 
15617500    1967.8381   -754.40271    311061.86    15.347128 
15618000    1893.7774   -746.06652    289580.88    15.406373 
15618500    2011.0582   -747.35503    291499.34     15.34494 
[...]
29848000    1977.6883   -626.15599     298462.1    14.659368 
29848500    1897.8132   -665.24725    297660.17    14.955131 
29849000    1878.5353   -736.23404     300522.9    15.378454 
29849500    1937.8011   -736.34599    302891.93    15.334479 
29850000    1952.3749   -712.37774    299944.12    15.133195 
29850500    1831.5462   -639.87791    299864.42    14.694686 
29851000    1837.2105   -651.02344    300483.44    14.728828 
29851500    2044.2669   -632.51133    306206.96    14.673355 
29852000    1859.9719   -657.98637    294727.28     14.77095 
29852500    1974.6295   -684.49269    298829.43    15.074063 
29853000    1868.4427   -681.57063    299123.75    15.117719 
29853500    2018.4528   -655.52295    299879.36    14.915651 
29854000    2010.9199   -663.76165    301363.83    15.106528 
29854500     1987.134   -661.32419    298242.09    15.174005 
29855000    2049.2725   -676.53586    299937.54    15.187968 
29855500    1852.2718   -686.50789    292756.11    15.428173 
29856000    2124.1358   -627.42507    309440.72    14.822342 
29856500    2090.7734    -709.0444    281705.27    15.444446 
29857000    1907.2736    -729.4402    303916.84    15.362118 
29857500    2019.0643   -756.68889    310824.65    15.611432 
29858000    1937.4297   -755.68184    308494.69    15.584754 
29858500    1944.2138   -690.02587    306458.91    14.950684 
29859000    2036.7946   -725.82306    294776.82    15.134184 
29859500    2051.4979   -732.43292    299697.85    15.277896 
29860000    2089.8374   -714.42771    310537.89    15.363018 
29860500    1912.4416   -662.56069    300639.42    15.060908 
29861000     2022.557   -668.12746    300732.81    15.068165 
29861500    1837.2476   -673.59749    297678.66    15.186749 
29862000    1837.8177    -702.4912    301094.95     15.36991 
29862500    2254.2088   -718.56148    302009.93    15.332292 
29863000    2061.3902   -692.65237    303355.89    15.414015 
29863500    1996.8077   -645.15886     298770.9    15.077466 
29864000    1808.1486   -671.10776    298402.96    15.209539 
29864500    2015.3234   -637.75338    306941.84    15.029688 
29865000    1801.6918   -705.76735    298352.94    15.370105 
29865500    2190.6957   -645.86044    309770.13    14.917459 
29866000    1927.2181    -699.8158    296385.33    15.417138 
29866500      2245.92   -724.45771    298292.59    15.571008 
29867000    2080.3826   -646.45282    298428.68    14.939632 
29867500    2007.8488   -720.28103    300091.25    15.477016 
29868000    2237.9366   -731.12429    299016.21    15.370438 
29868500    1853.2062   -724.71756    303691.76    15.367953 
29869000    2021.2671   -718.08455    303904.07    15.248816 
29869500    1903.1785   -738.08584    300800.36    15.687337 
29870000    1933.9691   -717.27953    305624.35    15.297816 
29870500    2071.2263   -734.74951    296989.12     15.59617 
29871000    1944.7762   -737.63253    299937.01    15.575816 
29871500    2103.9507   -729.79397    301223.05    15.541112 
29872000    2032.3609   -665.96867    297427.03    15.123202 
29872500    2099.5996   -665.59728    304398.95    15.059066 
29873000    2133.5324   -645.85074    301041.33    14.746552 
29873500    1908.5729    -622.3499    301269.76    14.686562 
29874000    1866.3926   -626.35562    299004.95    14.809585 
29874500    1996.8445   -680.18698    297515.19    15.214085 
29875000    2098.6921   -663.72415    297930.25    15.199565 
29875500    1985.4734   -657.62627    297731.78    15.185631 
29876000    1935.2178   -717.50697    303665.17     15.51717 
29876500    2074.4332   -628.96152    305457.13    14.879583 
29877000    1900.7506    -651.7899    290969.31    15.209762 
29877500    1892.8692   -663.32626     295354.8    15.112515 
29878000     1884.834   -653.07271    300422.79    15.177561 
29878500    2021.9472   -688.06219    304057.87     15.19481 
29879000    2159.9938   -703.83409    303687.97    15.412307 
29879500    2053.0686   -714.70004    301472.45    15.385699 
29880000     1941.611   -678.68991    302373.79    15.232498 
29880500    2122.9171   -732.20239    302527.04    15.373006 
29881000    2008.3759   -691.02964    303805.32    15.143128 
29881500    2027.0442   -584.44003    296553.89    14.515731 
29882000    2245.9756     -585.838    287603.53    14.465703 
29882500    2085.4475   -660.46305    298217.61    14.885751 
29883000    1845.8234    -700.1002    289904.11    15.461531 
29883500    2055.0917   -645.59551    303325.56    14.772146 
29884000    2208.3032   -633.42336    301056.89    14.702054 
29884500    2091.5858    -573.4541    322300.77    14.424559 
29885000    2145.9954   -686.00369    303247.77     15.02587 
29885500    1980.3314   -663.43652    293021.35    14.816016 
29886000    2003.3755   -669.88867    296899.19    14.850616 
29886500     2108.265   -642.18478    297043.35    14.744582 
29887000    1941.1806   -670.99248     299585.8    15.036846 
29887500    1817.0144   -646.29604    301083.22    14.825877 
29888000     1966.724   -736.79018    294152.32     15.37359 
29888500    2168.1598   -746.93918    312942.77    15.298327 
29889000    2108.9167   -725.19181    303923.16    15.258944 
29889500    1935.2015   -733.27603    301611.25    15.307223 
29890000    2027.9715   -744.39149     283629.7    15.364455 
29890500    2190.4679   -746.25818    300125.38     15.39915 
29891000    2057.5714   -724.96253    298470.71    15.140537 
29891500    1948.0037   -722.96649    303925.94     15.01433 
29892000    2008.1713   -715.89183    309912.58    14.916008 
29892500    1895.4398   -657.15915    304068.96    14.576906 
29893000    2038.0264   -604.40541    299698.54    14.393006 
29893500    2067.7145   -654.64775     296643.1    14.806321 
29894000    1937.3431     -645.788    301656.71    14.688412 
29894500    2016.6713   -668.16292    298422.57    14.754122 
29895000    1890.3646   -689.25227    296688.12    15.130775 
29895500    1751.5403    -685.5867    300116.46     15.13426 
29896000    2163.4368    -638.5151    308889.85    14.789726 
29896500    2013.6664   -702.06057    298859.52    15.183088 
29897000    1962.2047   -656.59616    302605.61    14.705009 
29897500    2091.7904   -668.37279    305000.85    14.685156 
29898000    2015.4767   -661.42256    295722.71    14.727168 
29898500    2200.8539   -699.25983    301154.94    15.135903 
29899000     2092.917   -700.87213    305935.33    15.307845 
29899500    1951.8575   -663.63814    302975.26    15.022032 
29900000    2144.8992   -660.15273    300798.08    15.066752 
29900500    2044.9732   -661.70116    298334.96    15.026602 
29901000    1801.6155   -682.50143    295025.06    15.200742 
29901500    2039.0217   -636.35898    298434.52    14.679565 
29902000    1756.9966   -683.12009    300253.25    15.079151 
29902500     2020.984   -656.04205     307674.3    14.712282 
29903000    1893.4963   -691.05758    298349.01    15.160939 
29903500    1924.8903   -677.77769    292904.38    15.167291 
29904000    2008.8592   -668.26608    298963.62    15.223934 
29904500    2002.0644   -706.14491    301848.52    15.417994 
29905000    2059.3636   -691.71435    301966.13    15.209024 
29905500     1902.777   -645.89485    304962.15    14.922096 
29906000    2112.9357   -684.06571    301082.59    15.008864 
29906500    2070.1405   -749.18981    311979.76    15.608409 
29907000    2106.3052   -732.74222    300603.01    15.454991 
29907500    2042.3684    -688.2719    301338.44    15.309684 
29908000    1803.6032   -688.75335    300015.18    15.297035 
29908500    2040.1559   -658.87015    301792.22    15.153204 
29909000    1870.6368     -704.814    296615.57    15.474152 
29909500    2036.7749   -654.26684    303225.93    15.054134 
29910000    1812.9065   -688.63947    285343.15    15.349863 
29910500    1909.1796   -636.45741    309431.89    14.942936 
29911000    1980.7332    -650.3999    299923.75    15.125338 
29911500    2020.9597   -693.90216    302887.73    15.346629 
29912000    2021.8877   -588.80492    293680.53    14.431455 
29912500    1908.2859   -573.97094    319655.95    14.442654 
29913000    2019.2271   -584.11389    305125.43    14.478181 
29913500    2019.7962   -659.90234    298163.88    15.138891 
29914000    1952.6456   -674.90356    295145.31    15.296769 
29914500    1971.2499   -718.57089    295362.95    15.577818 
29915000    1914.7481   -673.15814    296597.54    15.142582 
29915500    1939.5963   -641.52215    301007.14    14.982028 
29916000    2103.4711   -748.93461    303681.69     15.72242 
29916500    1856.7955   -696.68004    298499.06    15.166069 
29917000     1926.412   -704.68907    305818.26    15.244482 
29917500    1926.3065    -739.6215    289535.54    15.521205 
29918000     1987.585   -662.80374    301203.16    14.967479 
29918500    2097.6138   -651.04863    304462.92    14.927797 
29919000    2096.5581   -737.24385    305498.73    15.672303 
29919500    2127.5569   -714.22471    303144.78    15.313517 
29920000    1993.2373   -711.00445    303064.07    15.292796 
29920500    1934.4095    -745.0273    297025.48    15.678187 
29921000      1866.86   -740.45523    299575.06    15.656795 
29921500    2054.5385   -705.16342    299925.49    15.364579 
29922000    2127.7249   -715.34946    302337.13    15.354493 
29922500    2086.7219   -722.10141     303677.7    15.297139 
29923000    2013.5547    -752.4459    299336.19    15.686372 
29923500    1890.9091   -695.63578    297660.72    15.249626 
29924000    1884.2466   -679.66254    300294.79    15.269436 
29924500    1967.4816   -630.01829    306308.59    15.022135 
29925000    2003.2265   -703.10127    297867.66    15.658384 
29925500    2110.3236   -678.03036    304099.94      15.3361 
29926000    1998.3591   -666.83654    305969.34     15.25505 
29926500    2032.5842   -652.63483     300841.7    15.276473 
29927000    1926.4306    -650.7644    302286.88    15.246696 
29927500    2036.1246   -643.76906    302733.11    15.198798 
29928000    2050.7116   -639.64165    298612.27    15.183604 
29928500    1991.5171   -638.50266    294637.91    15.218666 
29929000    2225.2968   -665.79226     305023.1    15.237053 
29929500    2110.0648   -680.46518    296563.33    15.282766 
29930000    1932.2438   -715.00402    300393.71    15.433282 
29930500    1946.7037   -714.46253    303409.84     15.39374 
29931000    1921.3019    -707.6866    301784.43    15.429094 
29931500     2095.969   -669.07102    302480.98    15.134706 
29932000    1996.1102   -682.45531    298620.34    15.172856 
29932500    1742.9201   -702.00588    297474.37    15.432637 
29933000    2135.0716   -653.85108    299698.41    15.105842 
29933500    1999.1199   -705.48499    300095.77     15.41323 
29934000    2105.8052   -754.06455    301753.25      15.6862 
29934500    2038.4607   -738.82647    300495.69    15.631537 
29935000    2142.4563   -671.20163    295748.23    15.139701 
29935500    1908.8271   -666.88185    299478.54    15.082818 
29936000    2058.8664   -584.66445    297948.87    14.502635 
29936500     1941.831   -578.14188    303165.34    14.510335 
29937000    1980.7066   -636.26257    296400.03    14.734072 
29937500    1993.4393   -623.87216    296358.65    14.742339 
29938000     1842.439   -623.08081    301138.74    14.649462 
29938500    1948.3465   -701.47534    304809.81    15.165221 
29939000    1957.6538   -719.10081    301679.93    15.206804 
29939500    2044.3725   -735.79072    306908.85    15.261268 
29940000    2041.9269   -751.90941    296767.71    15.429482 
29940500    1952.4642   -733.33051    306157.11    15.255787 
29941000    2057.0685   -713.70528    301276.47    15.135811 
29941500    2046.5492   -740.44627    294412.29    15.420415 
29942000    2029.2067   -724.98149    297907.11    15.228013 
29942500      1870.34   -735.65187    307724.26    15.282701 
29943000    1858.3682   -755.32408    307965.17    15.402218 
29943500    1932.5487   -728.69824    305835.66    15.252909 
29944000    2150.4097   -631.93573    305704.21    14.711796 
29944500    2094.9074   -673.93659     295097.3     15.17468 
29945000    2058.6079   -641.14646    305483.26    14.935094 
29945500    2087.4355    -660.8515    301117.79    15.094549 
29946000    2122.8592   -675.20676    296347.09    15.264279 
29946500    2138.9301    -674.0558    300339.25    15.156889 
29947000    1912.2125   -659.73567    297605.23    15.051355 
29947500    2058.8891    -666.6746     296885.6    15.195503 
29948000    1968.1331   -689.41762    301711.09    15.228287 
29948500    2040.2035   -701.72567    302455.29    15.402318 
29949000    2111.8127   -640.31989    300052.67    14.808709 
29949500    2083.4127    -675.1081    299289.45    15.189587 
29950000    1993.5506    -697.3462    291768.59    15.457063 
29950500    2024.2873   -644.97196    302421.21    14.975242 
29951000    1966.2644   -659.27846    301041.69    15.075453 
29951500    2034.9996   -669.63926    302948.26    15.186756 
29952000    2192.5201   -668.17342    301220.13    15.101015 
29952500    1877.4874   -663.12792    290042.31    15.165054 
29953000     2032.256   -692.53635    296049.38    15.387589 
29953500     1884.855   -675.86662     296163.2    15.263706 
29954000    2272.7382   -753.37126    289362.26     15.72446 
29954500    1879.3205   -728.06741    299406.54    15.529597 
29955000    2039.5435   -696.91869    306493.49     15.20756 
29955500    2059.5555   -695.43788    307227.54    15.037385 
29956000    1839.7993   -692.29629    304134.97    15.126919 
29956500    1936.2426   -724.99973    301926.95    15.316639 
29957000    1951.0542   -699.84066    303462.37     15.23742 
29957500     2009.222   -723.77715    281665.05    15.265929 
29958000    1868.0862   -721.16923    281045.81     15.24786 
29958500    2094.1677    -611.2004    309956.02    14.415942 
29959000      2204.93    -674.9921    298143.52    14.692747 
29959500    2157.9014    -663.7153    304231.08    14.627775 
29960000    1826.8499   -656.75745    296903.22    14.915164 
29960500    2015.7386   -680.10722    297192.99    15.145167 
29961000    1954.8353   -688.59631    301943.49    15.054702 
29961500    2081.8698   -633.76052    306394.25    14.662709 
29962000    2052.1799   -682.54181    297127.45    15.029538 
29962500    1833.8922   -630.60472    302372.33    14.654501 
29963000    2111.4481   -649.49207    305468.63    14.579168 
29963500    2186.9448    -661.0057    304637.27    14.642302 
29964000    1962.3517   -594.55088     302561.5    14.504217 
29964500    2057.7818   -628.27958    302161.81    14.674737 
29965000    2028.1558    -654.3238    308807.96    15.055959 
29965500    1907.8965   -664.86324    300077.07    15.074151 
29966000    1854.1898   -645.74575    298490.47    14.807129 
29966500     2037.106   -695.53771    298817.01    15.031115 
29967000     1855.178   -737.09527    299140.95    15.307333 
29967500    2038.9053   -732.93618    281828.56    15.512499 
29968000    1901.2262   -695.78348    299575.25    15.409739 
29968500    2050.6911   -636.81164     310636.6    14.901609 
29969000    1963.2112   -690.12485    299497.19    15.336932 
29969500    1947.8719   -720.01541    302292.64    15.463106 
29970000    2201.5582   -729.11058    302678.41    15.483178 
29970500    1756.0495   -676.83003    296128.92     15.24853 
29971000    2025.3272   -659.49536    303876.15    15.020644 
29971500    1872.3448   -666.20016    296382.45    15.148427 
29972000    1898.6137   -729.09509    294044.54    15.574557 
29972500    1898.8344   -731.36258    299431.51    15.589495 
29973000    1952.3534   -752.39592    300976.97     15.63185 
29973500    2181.4227   -752.32403    314135.54    15.629302 
29974000    1883.4483   -710.19871    301959.51    15.117316 
29974500    1725.9582   -741.62808    289205.34    15.348893 
29975000    1999.3251   -745.99382    308348.45     15.33294 
29975500    2127.1322   -742.67489    305897.11    15.297356 
29976000    2047.8805   -747.56624    312399.44    15.450755 
29976500    2027.5364    -706.4475    308962.99    15.062835 
29977000    1978.5422   -701.43656    306989.38    15.055353 
29977500    2169.8253   -657.35723    306666.75     14.87475 
29978000    1925.9264   -660.01838    295907.14    14.972905 
29978500    1832.2664   -667.20405    297612.13    14.974745 
29979000     1936.853   -625.41958    306158.66    14.649666 
29979500    1992.4253   -725.96112    291074.42    15.224025 
29980000    2075.6247   -714.94055    301985.98     15.04626 
29980500    1937.5506   -729.23617    295220.71    15.249265 
29981000    1862.5797    -709.9125    304437.78    15.067075 
29981500    1839.8085   -726.20527    296239.63    15.192639 
29982000    1849.0223   -718.36313     295963.6     15.07017 
29982500    2063.1684   -704.02863     298840.8    14.996802 
29983000     2136.197   -638.11485    298984.71    14.679521 
29983500    1910.1569   -638.27468    303282.56    14.661626 
29984000    1888.3513   -673.96475    298881.23    14.868472 
29984500    2047.9079   -732.53587     302155.9    15.385432 
29985000    2004.4629   -747.37056    307745.69      15.6095 
29985500     1906.253   -727.84182    297517.84    15.101086 
29986000    2074.8845   -751.13721    312321.64    15.338049 
29986500    2179.7211   -755.79315    304662.26    15.353413 
29987000    1991.9985   -756.00263    304886.65    15.379216 
29987500    1958.0496   -744.53364    306662.14    15.256972 
29988000    1889.3894   -726.98242    295790.53    15.135274 
29988500    1865.1198    -708.2614    301023.09    15.049008 
29989000    2000.7312   -703.37419    303489.97    14.922009 
29989500    2149.3789   -741.61784    307336.12    15.228618 
29990000    2049.9228      -712.22    291976.26    15.214847 
29990500    2081.9676   -722.99129    301888.76    15.226032 
29991000    2055.9959   -719.23759    299463.52    15.278657 
29991500    2153.0725   -677.76764    303800.01     15.08619 
29992000    1805.5467   -691.18349     298277.8    15.137884 
29992500    1928.8494   -699.37818    305174.27    15.096899 
29993000    2010.0749   -665.49847    302868.93    14.933119 
29993500    2086.5349   -642.71452    301620.06    14.763577 
29994000    2027.8831   -665.61637    302639.27    14.971845 
29994500    2040.6816   -661.46497     306765.6     14.64169 
29995000    2007.8488   -674.53504    309661.97    14.517535 
29995500    1912.9895   -684.11651    301385.04    14.589256 
29996000    2109.2065   -712.27123    306122.13    14.788851 
29996500     1977.109   -652.09635    293371.96    14.414108 
29997000    2105.1901   -635.35586    309531.54    14.380248 
29997500    1948.0086   -628.44154    320737.34    14.339145 
29998000    1718.2139   -736.55762    288555.78    15.017948 
29998500    1982.3101   -698.07385    294290.53    14.677867 
29999000    2040.8402   -679.02895    304887.02    14.622858 
29999500    1975.8157   -669.67008    296455.84    14.761416 
30000000    2047.0846   -673.90361    293746.72    14.738395 
Loop time of 68668 on 6 procs for 15000500 steps with 250 atoms

Performance: 37.748 ns/day, 0.636 hours/ns, 218.450 timesteps/s
99.3% CPU use with 6 MPI tasks x no OpenMP threads

MPI task timing breakdown:
Section |  min time  |  avg time  |  max time  |%varavg| %total
---------------------------------------------------------------
Pair    | 3839.6     | 3940.6     | 4050.9     | 125.2 |  5.74
Neigh   | 106.85     | 108.64     | 111.25     |  12.9 |  0.16
Comm    | 889.11     | 1001.7     | 1107.8     | 252.7 |  1.46
Output  | 438.14     | 438.17     | 438.26     |   0.2 |  0.64
Modify  | 63120      | 63125      | 63131      |   1.8 | 91.93
Other   |            | 54.34      |            |       |  0.08

Nlocal:    41.6667 ave 48 max 37 min
Histogram: 1 0 1 1 2 0 0 0 0 1
Nghost:    1183.5 ave 1226 max 1144 min
Histogram: 2 0 0 0 2 0 0 0 0 2
Neighs:    3709.67 ave 4174 max 3260 min
Histogram: 1 0 0 0 2 2 0 0 0 1

Total # of neighbors = 22258
Ave neighs/atom = 89.032
Neighbor list builds = 749682
Dangerous builds = 0

write_data	data.final
Total wall time: 19:04:34
