LAMMPS (8 Feb 2019)
Processor partition = 5
echo both

include		in.partitions
variable p_id world   0 1 2 3 4 5
include		in.temp
variable	temperature equal 2000.
variable	tempDamp equal 0.1 # approx 0.1 ps
include		in.pressure
variable	pressure equal 300000.
variable	pressureDamp equal 1.0
include 	in.seed
variable	seed world 74581 93734 128321 21934 495716 871038
units		metal
include		in.box
read_data	data.equil.${p_id}
read_data	data.equil.5
  orthogonal box = (0.0744726 0.0744726 0.0744726) to (14.9255 14.9255 14.9255)
  1 by 2 by 3 MPI processor grid
  reading atoms ...
  250 atoms
  reading velocities ...
  250 velocities

variable 	mass equal 26.981539
mass            1 ${mass}
mass            1 26.981539
include 	in.setup
variable	out_freq equal 500
variable	out_freq2 equal 500

neigh_modify    delay 10 every 1
include		in.al
### Argon Potential Parameters ###
pair_style 	eam/alloy
pair_coeff 	* * Al99.eam.alloy Al

timestep	0.002 # According to Frenkel and Smit is 0.001

thermo          ${out_freq}
thermo          500
thermo_style 	custom step temp pe press lx


restart 	${out_freq} Restart.lmp.${p_id} Restart2.lmp.${p_id}
restart 	500 Restart.lmp.${p_id} Restart2.lmp.${p_id}
restart 	500 Restart.lmp.5 Restart2.lmp.${p_id}
restart 	500 Restart.lmp.5 Restart2.lmp.5



# NPT

include		in.dump
dump            myDump all atom ${out_freq2} dump.al.${p_id}
dump            myDump all atom 500 dump.al.${p_id}
dump            myDump all atom 500 dump.al.5
dump            myDcdDump all dcd ${out_freq2} out.${p_id}.dcd
dump            myDcdDump all dcd 500 out.${p_id}.dcd
dump            myDcdDump all dcd 500 out.5.dcd
dump_modify	myDump append yes
dump_modify     myDcdDump append yes


timer 		timeout 23:50:00 every 1000
New timer settings: style=normal  mode=nosync  timeout=23:50:00

fix             1 all plumed plumedfile plumed.start.dat outfile plumed.out.${p_id}
fix             1 all plumed plumedfile plumed.start.dat outfile plumed.out.5
fix             2 all nph iso ${pressure} ${pressure} ${pressureDamp}
fix             2 all nph iso 300000 ${pressure} ${pressureDamp}
fix             2 all nph iso 300000 300000 ${pressureDamp}
fix             2 all nph iso 300000 300000 1
fix             3 all temp/csvr ${temperature} ${temperature} ${tempDamp} ${seed}
fix             3 all temp/csvr 2000 ${temperature} ${tempDamp} ${seed}
fix             3 all temp/csvr 2000 2000 ${tempDamp} ${seed}
fix             3 all temp/csvr 2000 2000 0.1 ${seed}
fix             3 all temp/csvr 2000 2000 0.1 871038
fix		4 all momentum 10000 linear 1 1 1 angular

run             15000000 upto # 30 ns
Neighbor list info ...
  update every 1 steps, delay 10 steps, check yes
  max neighbors/atom: 2000, page size: 100000
  master list distance cutoff = 8.28721
  ghost atom cutoff = 8.28721
  binsize = 4.1436, bins = 4 4 4
  1 neighbor lists, perpetual/occasional/extra = 1 0 0
  (1) pair eam/alloy, perpetual
      attributes: half, newton on
      pair build: half/bin/atomonly/newton
      stencil: half/bin/3d/newton
      bin: standard
Per MPI rank memory allocation (min/avg/max) = 4.003 | 4.005 | 4.007 Mbytes
Step Temp PotEng Press Lx 
       0    1839.0285    -698.0627     324059.3    14.851055 
     500    2063.7754    -714.0758    281430.59    14.990825 
    1000    1937.0603   -699.43095    306932.51    14.880951 
    1500     1998.287   -714.21888     288984.6    14.999203 
    2000    1948.1493   -702.25708     299945.1    14.883476 
    2500     2166.823   -714.90866    295525.79    15.023139 
    3000    1980.0165   -703.18095    302779.87    15.043253 
    3500    2107.2385   -706.50562     299325.6    15.091795 
    4000    2082.9578   -703.08151    298022.76     15.08796 
    4500    2038.5799   -685.10884    305800.75    14.973092 
    5000    2191.4897   -711.58332    299768.51    15.119114 
    5500    2176.5379   -691.65099    301301.31    14.998425 
    6000    1903.7486   -703.25457    295854.03    15.080943 
    6500    2024.5809   -680.42463     298769.6    14.739845 
    7000    1994.0223   -682.45611    292688.79    14.767693 
    7500    1969.7087    -675.5578    303151.66    14.698767 
    8000    1897.4762   -684.07897    292117.74    14.746378 
    8500    2030.4812   -668.10624    307106.19      14.6747 
    9000    2118.7727   -678.94872    289959.98    14.723353 
    9500    1906.0516   -668.32413    300796.69    14.769624 
   10000    2062.2503   -663.20206    303201.18    14.873034 
   10500    1932.4445   -663.11243    304227.52    14.806536 
   11000    2040.5899   -665.40673    299585.98    14.868098 
   11500    1796.4833    -676.9958    282172.18     14.83096 
   12000    1880.5907   -670.96639    302556.42    14.920969 
   12500    2026.6298   -667.53264    309430.21    14.929154 
   13000    2035.2958   -666.56083    312842.83    14.931461 
   13500    1830.7263   -672.57153     301466.9     14.98586 
   14000    1885.3548   -667.67508    309203.09    14.936904 
   14500    2026.2542   -672.82929    299329.59      14.9148 
   15000    1850.0735   -655.75901    296900.47    14.856409 
   15500    2171.5498   -663.49389    298602.31    14.805896 
   16000    2101.5601   -678.42502    291649.47    15.008594 
   16500    1926.0424   -664.74646    299332.18    14.938091 
   17000    2210.0714   -656.41695    314098.53    14.839488 
   17500    2146.4831   -659.80784    310956.48    14.785798 
   18000    1975.5672   -658.89284     299667.6    14.768368 
   18500    1999.6242   -661.98378    301911.16    14.828309 
   19000    2017.0588   -661.83484    289277.48    14.695283 
   19500    2107.8459   -653.96653    305806.21    14.810681 
   20000    2092.1752   -648.05746    318489.44    14.671289 
   20500    2077.7112   -649.40224    309931.37     14.65139 
   21000    1804.4943   -656.24789    290108.78    14.628922 
   21500    1958.8519   -668.97562    289985.62    14.612722 
   22000    2072.9721   -654.83778    304525.16    14.600164 
   22500      2038.64    -652.3489     312585.3    14.594925 
   23000    1964.9562   -648.43274    307038.49    14.623736 
   23500    1954.9288   -647.86743    294468.45    14.753687 
   24000    2124.4948   -658.50849    298979.45    14.849821 
   24500    2061.6722   -649.58793    302407.55    14.797894 
   25000    1953.5111   -651.06167    305473.12    14.796827 
   25500     2045.738   -649.78406    311294.27    14.670756 
   26000     2065.655   -653.79652    295276.44    14.690442 
   26500    1878.4279   -660.98298    289810.77     14.80973 
   27000    2080.0429   -650.00732    307365.58    14.778895 
   27500    2061.2682   -648.85967     307643.8    14.706883 
   28000    2131.5431   -660.36281    294767.45    14.792806 
   28500    1994.8608   -646.86302     303610.6    14.757412 
   29000    1973.2295   -665.26965     304899.3    14.898439 
   29500    2169.9944   -685.08863    294891.18    14.984615 
   30000     1840.188   -656.09352    299514.53    14.841294 
   30500    1929.7882   -725.08532    302181.56    15.360582 
   31000    1814.0525   -728.74674    291550.74    15.384466 
   31500    1894.8127   -723.36246    305058.33    15.386664 
   32000    1874.9919   -725.96684    297572.95    15.406293 
   32500    1928.2535   -732.61151    290769.59    15.442022 
   33000    2016.0998   -708.51944    320123.67    15.314396 
   33500    1974.5175   -725.71047     297361.7    15.442074 
   34000    1904.8168   -715.74097    306133.24    15.424676 
   34500    1994.1554   -727.62694    304005.55    15.419096 
   35000    2233.7761   -718.40325    303672.54    15.427321 
   35500    1997.9227   -723.39314    301088.02    15.408177 
   36000    2096.5459   -724.20997     284627.5    15.469245 
   36500    2054.2267   -729.94215    292800.22     15.46532 
   37000    1920.8401    -718.8261    302687.74    15.392958 
   37500    1977.3878   -705.56873     307333.4    15.335572 
   38000    2015.2563   -650.76013    298711.72    14.926774 
   38500    1913.9468   -652.58358    288224.15    14.956723 
   39000    2020.9357   -641.80152    299010.58    14.927602 
   39500    1979.5492   -640.04256    306591.64    14.920676 
   40000    2106.3355   -652.93906    299495.58    14.947062 
   40500    2002.4864   -629.48658    317434.12    14.803476 
   41000    1960.6457   -624.96717     307087.6    14.863974 
   41500    2037.9787   -678.36706    297865.09    15.170035 
   42000    2045.0675   -640.05966    293640.98    14.907427 
   42500    2160.2911   -637.57705    304567.95    14.872743 
   43000    1856.3475   -649.84159    299140.03    14.905067 
   43500    1974.5044   -660.35835    292806.57    14.918161 
   44000    1894.7548   -681.07336    286955.63    15.048226 
   44500    2205.3029   -644.77342    295668.39    14.794817 
   45000    1942.1698   -658.28233    295108.83    14.856982 
   45500    1843.4386   -659.86733    285729.53    14.901877 
   46000    2103.5463   -644.74889    293561.74    14.608969 
   46500    1793.6868   -643.66703    288675.74    14.629467 
   47000    2051.4705   -649.09684    277573.65     14.61129 
   47500    1937.6574    -641.8449    309731.25    14.502548 
   48000    2092.2993   -647.84915     294606.8    14.548272 
   48500    2141.3591   -651.25953    282949.33    14.578103 
   49000    1922.7434   -638.75128    312472.26    14.511119 
   49500    1871.1213    -643.9985    298700.65    14.517568 
   50000    2093.2343   -641.94928     311197.3    14.507726 
   50500     2117.888   -653.16466    295487.85    14.556256 
   51000    2002.8449   -637.09273    325998.36    14.503973 
   51500    1970.7132   -648.53495    290373.29    14.666355 
   52000    2055.2185   -637.65287    299275.22    14.671701 
   52500    1938.1497   -643.42241    301517.18    14.644308 
   53000    1873.3233   -625.15951    327597.54    14.569183 
   53500    2137.8718   -646.82672    294169.65    14.728603 
   54000    1873.9822   -649.87581    295461.19    14.735721 
   54500    2118.2207   -647.43446    293844.91    14.718177 
   55000    2155.9596   -645.46061    300740.52    14.714007 
   55500    1986.2196   -632.46342    313499.39    14.646276 
   56000    2004.8413   -648.43311    296845.91    14.827488 
   56500    2136.0604   -734.06937    308760.75    15.307943 
   57000    2102.4422   -729.79923    298828.69    15.359907 
   57500    2095.6756   -698.03551    308022.47    14.958397 
   58000    2099.2559   -728.25084    299132.55    15.135195 
   58500    1902.4932   -744.13314    289041.09    15.272323 
   59000    2054.9172   -714.08214    313710.14    14.917352 
   59500    1890.9242   -715.05019    297887.91    15.110837 
   60000    1962.1274   -749.67213    293723.58    15.313601 
   60500    2156.9431    -730.6104    301630.36    15.107651 
   61000     2074.198    -726.4453    297333.41    15.066258 
   61500    1941.8397    -710.9957    308817.02    14.915677 
   62000    2184.2517    -714.7984    307337.03    14.929853 
   62500     2048.305   -719.65917    307717.71    15.190909 
   63000    2221.2944    -746.2361    282356.66    15.390873 
   63500    2052.2594   -743.70501    278484.07    15.363442 
   64000     1888.627   -699.99199    302728.46    14.995166 
   64500    1819.0534   -738.97462    300378.06    15.317331 
   65000    2082.0847   -710.25436    298145.78    15.115412 
   65500    2172.4223   -725.37029    305044.26    15.315928 
   66000    1952.4822    -716.5866    303035.37    15.334023 
   66500    2108.5119   -678.77807    304512.29     15.00683 
   67000    1875.5241   -685.03726    299832.97    15.021114 
   67500    2115.3366    -629.1429    309127.06    14.710132 
   68000    2195.6466   -719.50063    305625.18    15.233627 
   68500    1991.6223   -719.36377    303540.47    15.336768 
   69000    1908.8933    -646.9119    296873.23    14.817527 
   69500     2023.365   -662.97245    297316.41    14.960344 
   70000     1822.323   -673.81302    305832.42    15.090643 
   70500    2132.0563    -669.5206    302806.02     15.08963 
   71000     2092.906   -684.25403    304403.43    15.140918 
   71500    2081.6626   -651.14356    305179.01    14.943822 
   72000    2072.6689   -627.72584    299992.06    14.878261 
   72500    2037.8754   -610.63445    321305.09    14.741567 
   73000    2088.5347   -619.11628    299034.65    14.814567 
   73500    2004.9376   -614.37012    302413.69    14.804455 
   74000    1999.2941   -629.20432    291774.36    14.831443 
   74500    1899.3763    -634.2582    284668.72    14.852117 
   75000    2088.2031   -624.09208    297672.91    14.802078 
   75500    1879.5082   -623.38041    286063.07    14.806205 
   76000    1937.5201   -622.92435    288504.28    14.782591 
   76500    1988.2727   -620.22755     302421.7    14.762122 
   77000    2124.5357   -616.04122    306267.84    14.749647 
   77500    1787.9166   -625.73818    291033.82    14.778868 
   78000    1768.9944   -620.62036    295537.24    14.842884 
   78500    1923.8643   -615.66809    303774.46    14.745811 
   79000    1998.8296   -621.89424    303366.01    14.719717 
   79500     2078.862    -717.7331    305398.58     15.36027 
   80000    1991.3545   -695.05458    294801.55    15.209457 
   80500    2017.2952   -676.80584    302020.01    15.147873 
   81000    2215.3514   -684.42366    299846.44    15.232904 
   81500    1896.2004   -688.87498    287197.61    15.302431 
   82000    2111.5624   -669.01815    310053.15    15.131159 
   82500    2050.5772   -677.29737    298352.37    15.204189 
   83000    2045.3125   -672.54968    298981.63    15.199638 
   83500    2136.9893   -668.35523    300699.35    15.220512 
   84000    1873.4393   -661.56728    300512.02     15.22355 
   84500    1804.1371   -685.59357    291630.63    15.184185 
   85000    2029.9371   -676.16959    305876.06    15.136441 
   85500    1970.2986   -682.81014    287475.67    15.260528 
   86000    1861.9612   -668.91191    311795.43    15.088211 
   86500    2053.9111   -685.29257    296495.87    15.224913 
   87000    2044.3032   -660.81794    307544.24    15.017104 
   87500    2019.1148   -667.16307    308015.59    15.196222 
   88000    1832.1799   -670.33883    302603.42    15.204936 
   88500    2048.3683   -675.63199    297302.28     15.24206 
   89000    2084.1073   -685.07132    292400.43    15.206771 
   89500    1891.9207   -664.42977    305519.72    15.178986 
   90000    1925.9867   -676.34664    300800.04    15.203641 
   90500    1965.8987    -669.4343    306349.27     15.07132 
   91000    1960.4875   -674.22059    303417.62    15.104301 
   91500    2103.2548   -677.86497    305375.61    14.961728 
   92000    2075.7873   -691.41768    295024.06    15.090393 
   92500    2105.5035   -688.23854     300311.2    15.163746 
   93000    1861.3463   -683.86419    292814.26     15.16493 
   93500    2099.8103    -673.0496    298717.98    15.105446 
   94000    1981.2723   -671.08191    308231.63    15.140873 
   94500    2012.7801   -658.87825    298636.13    15.107183 
   95000    2074.7475   -626.33632    294944.94    14.770307 
   95500    2035.0651   -619.11758    301907.13     14.74499 
   96000    2036.4187   -638.30377    290804.05    14.742275 
   96500    1914.1373   -642.15697       296021    14.819808 
   97000    2025.4779    -628.1201    297659.11    14.760878 
   97500    2302.1708    -629.8959    307963.18    14.705995 
   98000    1830.9586   -678.02188    296657.09    15.119155 
   98500    1829.1804   -624.80706    302687.43    14.690494 
   99000    2105.2086   -631.51589     296822.5    14.716715 
   99500    1867.8902   -639.79445    292425.67    14.699483 
  100000    1996.1944   -634.73997    286157.07      14.6561 
  100500    2040.2511   -626.62091    300614.63    14.577605 
  101000    2110.6592     -629.592    295850.01    14.573477 
  101500    1893.4912   -626.88407    291536.28    14.595685 
  102000    1889.0032    -634.8438    286890.92    14.761888 
  102500    2099.7071   -629.58787    290348.38    14.711913 
  103000    1879.4877   -630.82653    286555.58     14.71229 
  103500    1926.8868   -724.69332     305937.2     15.37742 
  104000     1824.858   -741.69632    304548.57    15.468817 
  104500    1914.5667   -736.96692    307586.19    15.467987 
  105000    1892.9157   -744.84046    306793.36    15.422833 
  105500    1999.5389    -743.0013     303199.5    15.458547 
  106000    1942.4602    -736.4828    304785.45    15.468149 
  106500    2012.9809   -738.54257    269972.45    15.499656 
  107000    1927.2671   -744.73792    284985.36    15.542891 
  107500    2145.2237   -717.67309    301673.92    15.284118 
  108000    2092.5215   -629.34739    290262.81    14.716651 
  108500    1761.0622   -628.54295     290414.9    14.724015 
  109000    2001.4029   -635.35652    293917.89     14.73075 
  109500    1915.5206   -625.66129    298922.22    14.665442 
  110000    1962.8416   -633.06757    289646.79    14.819338 
  110500      2023.76   -741.15451    282811.52    15.544754 
  111000      1980.12   -748.89395    290986.63     15.50569 
  111500    1947.1099   -742.70846    309283.01    15.417537 
  112000    2190.2808   -744.44941    295363.67    15.455017 
  112500    1798.4919   -740.59463    303569.79    15.494562 
  113000    2012.1116   -739.58396    300680.59    15.493427 
  113500     2047.234   -740.84935    300448.15     15.50397 
  114000     2039.685   -745.23604    288824.76    15.532446 
  114500    1919.0062    -741.7113    295989.05    15.457805 
  115000    2025.7175   -731.50309    306674.29    15.414473 
  115500    2056.1378   -739.46807    310943.73    15.406015 
  116000    1993.0816   -743.52063    292180.47    15.430908 
  116500    1943.1905   -737.50304    305369.48    15.461261 
  117000    1776.0771   -740.52553    290907.29    15.570474 
  117500    2196.4156   -728.85947    302016.46    15.520474 
  118000    1989.4547   -736.55427    307089.81    15.502448 
  118500    2152.5384   -741.47845    298347.48     15.62958 
  119000    1944.3038   -740.56511    292992.99    15.681272 
  119500    1933.8962   -737.95203    299297.22    15.673149 
  120000     1983.969   -739.44585    280735.99     15.67634 
  120500    1994.4563    -735.6547     298184.7    15.658293 
  121000    1813.0449   -738.23181    294646.09    15.670736 
  121500     1987.678   -739.99182    297728.76     15.68355 
  122000    2171.4808   -743.74317    293653.73    15.669332 
  122500    1972.3884    -741.4088    295680.86     15.67638 
  123000    1953.4392   -739.85157    270870.33    15.734879 
  123500    1923.3849    -729.9194    317002.41    15.582463 
  124000     1996.653    -738.6296    305396.35    15.649051 
  124500    1971.1346   -740.61764    279718.21     15.68861 
  125000    2020.0093   -737.19659    295335.18    15.677226 
  125500    1895.6511   -739.59682    308714.35    15.604155 
  126000    1965.2978   -739.23601    315284.03    15.596431 
  126500    1971.9145   -737.80524    304771.85    15.633133 
  127000    1977.5965    -745.8142    277834.46    15.705554 
  127500    2059.4803   -746.74374    282985.61    15.702881 
  128000     2039.212   -740.43629    312976.29    15.610755 
  128500    1999.3347   -739.11639    276874.59    15.681152 
  129000    1941.3976   -741.03324    315745.16     15.59303 
  129500    1942.0801   -739.89203    296945.73    15.624875 
  130000    2071.4555   -742.72476    290920.87    15.652892 
  130500    1997.2894    -662.2378    302078.18    14.963383 
  131000    1981.6139   -669.11163    308096.95    15.012347 
  131500     2046.933   -672.05946     305403.1    14.959098 
  132000    2172.4873   -701.76299    303216.11    15.001708 
  132500    1916.2866   -703.12064    292961.31     15.05851 
  133000    1917.3093   -687.59092    309527.01    14.943065 
  133500    1910.3331   -701.93204    290793.07    15.106516 
  134000    2133.4141   -687.68905    300434.76    15.015434 
  134500    1956.0664   -690.36535    308978.63    15.000609 
  135000    2108.7981   -695.15846    302522.14    15.034953 
  135500    2059.6437   -705.23358    303907.17    15.074919 
  136000    1953.9165   -696.64191    299581.88    15.075968 
  136500    2052.9612   -671.02083    294000.27    14.897577 
  137000    1938.0739   -693.81028    294912.33    15.053166 
  137500    2013.1398   -696.03543    298388.17    15.078066 
  138000    1939.6471   -694.24789    302655.72     15.05163 
  138500    2021.2289   -675.49009    300319.88    14.905092 
  139000    1928.4691   -713.80685     295309.9    15.170586 
  139500    2315.2284   -682.10298    309164.27    14.968556 
  140000    2038.0033     -681.765    313220.45    14.920035 
  140500    1985.9983   -705.19595    288021.35    15.098529 
  141000    1970.1882   -683.47395    289383.94    14.965172 
  141500    2094.0485   -702.99715    304544.74    15.022642 
  142000    2035.5714   -705.98972    297278.26     14.97434 
  142500    1974.7154   -702.45499     294924.8    15.070086 
  143000    2085.7787   -707.14076    263154.51    15.015638 
  143500    1850.4635   -693.21665    309003.74    14.929584 
  144000    1868.3315   -699.07641    306594.04     15.00099 
  144500     1953.516   -710.63106    288510.11     15.02966 
  145000     1935.327   -710.51101    299147.58    15.028174 
  145500    2118.2284   -679.65221    311616.07    14.882932 
  146000    1778.3227   -704.85248    301006.94    15.057587 
  146500    1955.2641   -703.67007    294284.94    15.074645 
  147000    1934.0055   -715.85828    297410.08    15.163468 
  147500    2008.8258   -721.50328    299515.15    15.176054 
  148000    2051.7298   -699.46866    311900.04    14.960651 
  148500    2258.7504   -712.11069     300465.2    15.098442 
  149000    1990.6772   -707.16112     304115.5    15.132004 
  149500    2057.9592   -726.23045     302190.4    15.213491 
  150000    2137.3118   -713.73392    299601.73    15.087204 
  150500    2011.2328   -684.12075    300421.99    14.919224 
  151000    1927.2472   -700.63896    294100.68    14.953131 
  151500    1915.1343   -716.38587    305483.24    15.083983 
  152000    2054.2686   -746.82892     296569.6    15.450426 
  152500    2127.8407   -710.62066    289588.86    15.046451 
  153000    1880.8509   -711.85847    302492.02    15.056201 
  153500    1948.1153    -712.2006    303475.54    15.110577 
  154000     1952.931   -719.60433    288762.37    15.155639 
  154500    2003.2537   -705.10415    297643.85    15.053075 
  155000    2061.6627   -704.79251    289869.86    15.044907 
  155500      1995.75   -695.84648    314560.97     14.91445 
  156000    2060.3675   -700.16653    307935.62    15.015928 
  156500    2148.7243   -734.52172    295314.79    15.226647 
  157000    2100.3141   -712.77429    299680.05    15.084449 
  157500    1958.4784   -703.95036    295160.95    15.107762 
  158000    1988.4951   -696.45934    310567.45    14.972761 
  158500     2013.615    -706.8012    304778.59    15.099268 
  159000    2077.4589    -715.8632    301934.08    15.122117 
  159500    1962.5484   -702.77387    305657.67    15.046413 
  160000    1991.6943   -707.57638    302760.94    15.066482 
  160500    1900.7429   -725.36766    302768.78    15.278342 
  161000    1998.0562   -685.17274    289870.51    14.970646 
  161500    2130.0293   -711.10134    306086.49    15.159088 
  162000    2140.2665   -621.79467    292282.31     14.68431 
  162500    1981.7853     -638.108    303676.34    14.691649 
  163000       1793.8   -683.42745    293719.78    15.164449 
  163500    2056.6727   -718.42891    295280.07     15.30133 
  164000    1937.1252   -606.34821    330287.73    14.613753 
  164500    2176.9979   -618.89935    296422.56    14.719488 
  165000    1980.1108   -616.15642    298052.87    14.715762 
  165500    1952.2603   -607.54188    298433.15    14.689647 
  166000    2098.5746   -615.08462    300810.35     14.75203 
  166500    2215.0446   -605.53824    301226.39    14.710229 
  167000    2054.8357   -645.14238    289064.54    14.889173 
  167500    1943.6997   -646.12478    298232.73    14.981122 
  168000    2196.5147   -676.99837    312488.06    15.226231 
  168500    2084.5207   -684.64271    300884.74    15.318973 
  169000    2075.7421   -680.71058     298536.5    15.387727 
  169500    2001.1926   -676.80055       301266    15.225481 
  170000    2110.9113   -681.62163    295690.35    15.392522 
  170500    2044.5065   -660.67778    308723.97    15.215442 
  171000    1826.8355   -695.21974    294598.13    15.306086 
  171500     1928.808   -685.23472    299570.62    15.346128 
  172000    1971.9237   -691.88721     296004.1    15.391022 
  172500    2234.7152   -697.41884    284096.41    15.485974 
  173000    1936.2822   -666.91783    310366.65    15.288127 
  173500    2095.3406   -679.74544    304360.91    15.288852 
  174000    2124.2991   -694.07728    293858.64    15.423171 
  174500    2004.2627   -674.98615    308516.91    15.265538 
  175000    1966.4139   -682.24637    302775.36    15.291812 
  175500    2030.8098    -705.6747    299879.49    15.422858 
  176000     2017.064   -726.50975    298553.91    15.428831 
  176500    2072.3644   -701.91943    301843.01    15.178319 
  177000    1890.2869   -682.01529    298105.03    15.019632 
  177500    1961.1345   -631.07602    292260.12     14.70176 
  178000    1972.9572   -703.55222    297387.49     15.11732 
  178500    2124.0414   -701.62783    298708.95     14.89561 
  179000    1889.2221   -677.44609    300410.92    14.688895 
  179500    1984.8581   -674.20396    312842.76    14.655048 
  180000    2005.9926   -684.57034    291688.69    14.719675 
  180500    2044.9697   -699.66611    298924.86    14.920539 
  181000    1957.0791   -684.26609    311148.55    14.839774 
  181500    1957.5997   -723.67231    296946.76    15.221138 
  182000    2076.6272   -688.93129    301441.66     15.07917 
  182500    2013.6204    -693.6547    302475.61    14.947855 
  183000    1804.0411    -708.5785    295539.99    14.947815 
  183500    1990.9917   -695.85879    295484.92     14.90612 
  184000    2312.4524   -700.57498    299442.26    14.902373 
  184500    1961.7818   -683.21926    310443.49    14.715176 
  185000    2135.1155   -707.18837    295793.32    14.948583 
  185500    1930.8454   -684.76969    276144.05    14.839217 
  186000    1934.3208   -713.95141    288834.81    15.093806 
  186500    1957.8467   -736.73097    303165.66    15.274964 
  187000     2058.132   -753.40328    320844.32    15.357727 
  187500    1954.5108   -731.65518    309629.03    15.236469 
  188000    2112.9523   -760.61365    294275.13    15.422699 
  188500    2077.5787   -764.07472    279976.84    15.441066 
  189000    1835.9866   -757.12533    313623.95     15.36828 
  189500    1880.1905   -761.07118    289386.25    15.413724 
  190000    1943.8078   -758.80253     305310.5    15.410551 
  190500    1939.3989    -760.2519    288364.82    15.415442 
  191000    2041.6365   -755.85248    310161.45    15.399993 
  191500    2110.5108   -758.79481    302072.52    15.421487 
  192000    2043.3529   -761.65627    301698.81    15.407202 
  192500    2082.2083   -756.36674    301817.05    15.402039 
  193000    2002.4773   -763.99005    289831.05    15.421049 
  193500    2201.3608    -757.8181    276640.88    15.435771 
  194000    2003.6614   -681.44581    301248.12    14.837946 
  194500    2054.2766   -747.69815    312100.25    15.388476 
  195000    1865.6561   -706.33755       295542    15.015728 
  195500    2115.5412   -691.10896    301257.26    14.796603 
  196000    1990.5057   -683.49942    297919.54    14.904542 
  196500    1971.9426   -606.82096     323868.3    14.548325 
  197000    1979.6981   -748.66669    298430.04    15.546876 
  197500    2062.3938   -730.79505     296688.3     15.46493 
  198000     1772.321   -700.64606    296923.23    15.100419 
  198500    1964.5373   -721.72057     299915.2    15.238479 
  199000    2030.8904   -678.80818    298804.99    14.952648 
  199500    2004.6281   -669.06556     300618.2     15.00533 
  200000    2237.1533   -717.58407     299007.3    15.203005 
  200500    1899.8063   -746.99954     297914.3    15.544587 
  201000    1906.0019   -714.36928    302388.61    15.251063 
  201500    1878.3404   -714.89181    292804.26     15.36494 
  202000    1992.3576   -655.99907    302125.02    14.821031 
  202500    1912.1576   -645.46717    298616.98    14.845918 
  203000      2137.28   -662.33568    300321.67    14.927782 
  203500    1932.8215   -607.19448    309486.93    14.652116 
  204000    2009.9368   -617.67807    309937.61     14.65871 
  204500     1860.089   -605.18881    305610.79    14.642805 
  205000    1993.6846   -600.57861    301466.46    14.705005 
  205500    1866.3638   -597.90261    316696.65    14.631739 
  206000    1952.8197    -657.1368    303951.04    15.121053 
  206500    2098.5869   -668.60154    299734.34    15.269528 
  207000    2033.1311   -691.46929    300508.74    15.384855 
  207500     2001.657   -685.80631    308924.76     15.33379 
  208000    2023.4083   -698.72908    298313.33    15.392938 
  208500    2020.2893   -695.14479    299562.29    15.333469 
  209000    1883.7809   -688.02074    296396.21     15.40099 
  209500    1904.8472   -681.26105    302046.23    15.361116 
  210000    2078.0102   -668.76305    302137.83    15.316326 
  210500    2043.9856   -652.83636    309217.88     15.07449 
  211000    1991.4291   -687.74762    295700.12    15.379886 
  211500    1923.9025   -670.81075    298863.42    15.249533 
  212000    1974.1007   -664.78327     297481.9    15.127767 
  212500    2074.6572   -664.57802    293348.55    15.136048 
  213000    2114.0788   -695.65168    296377.75    15.414529 
  213500    1909.4404   -686.37639    302288.73    15.349192 
  214000    2161.5047   -692.41397    306656.08    15.364589 
  214500    1954.5772   -680.48275    301719.37    15.403152 
  215000    2286.5883   -681.77779    302768.37    15.422089 
  215500    2023.9939   -683.54071    298351.38    15.422982 
  216000    1953.6903   -629.20244    303756.63    15.023213 
  216500    2181.8879   -694.71197    300992.51    15.447569 
  217000    1894.2841   -667.39344    304639.91    15.396963 
  217500    2013.8109   -686.94248    306244.08    15.445526 
  218000    1843.5051   -685.07297    295034.43    15.480189 
  218500    1960.6404   -686.99884    297761.71     15.43838 
  219000    2199.8407   -686.41319     303622.3    15.439397 
  219500    2017.2929   -686.93213       298643    15.464063 
  220000    2058.3813   -655.74542     297669.8    15.207583 
  220500    2078.3783   -657.45152    295189.32    15.149148 
  221000    2057.1286   -690.03075    306742.15     15.33423 
  221500    1708.1498   -648.69743    298769.07    15.082281 
  222000    2005.4529   -655.77174    294174.89    15.028068 
  222500    2191.4429   -596.53258    317136.05    14.655349 
  223000    1974.1077   -693.72566    303425.71    15.389728 
  223500     2041.815   -656.82332    302240.08    15.220915 
  224000    1904.8089   -660.23076    293496.38    15.210634 
  224500     1891.706   -646.61439    294719.25    15.064835 
  225000     1913.856   -584.85374    328356.02    14.588882 
  225500    1969.0928   -584.95145    307733.05    14.654582 
  226000    1872.9619   -589.49247    300402.54    14.645069 
  226500    2253.8182   -627.30291    302915.17    14.800526 
  227000    2019.9654   -606.76374    302759.51    14.690923 
  227500    1922.7958   -625.67456    294349.37    14.730491 
  228000    2016.4627   -624.58902    294033.61     14.66521 
  228500    1926.0765   -628.06067    296762.88     14.63783 
  229000    1992.9468    -611.4697    308317.21    14.666303 
  229500    1996.1429   -606.78227    312610.25    14.634958 
  230000    2114.4267   -610.15519    302746.89    14.615362 
  230500    1960.3721   -603.49175    299504.23    14.650844 
  231000    1857.2513   -603.73567    296904.49    14.709237 
  231500    2081.7601   -610.01165    299281.85    14.731919 
  232000    1970.3252   -591.61225    299116.86    14.655932 
  232500    2330.1552   -583.48024     324440.3    14.650727 
  233000    2027.5875   -633.84756    300041.98    14.924604 
  233500    2036.1686   -653.48452    289354.33    15.152001 
  234000    2098.1523   -625.46954    310162.73    14.976018 
  234500     2022.122   -607.86094    297987.51    14.682771 
  235000    2006.7476   -595.41202    292460.59    14.679694 
  235500    2146.5213   -584.65009    314272.55    14.679651 
  236000    1973.8501   -601.64897    289846.86    14.735371 
  236500    2086.3083   -584.70739    312029.77    14.630055 
  237000    2035.4261   -588.90633    301208.08    14.718257 
  237500    2081.7365   -593.29148    287231.79    14.668886 
  238000       2147.9   -595.08066    290426.49    14.660712 
  238500    2139.7642   -600.28099    301787.54    14.630804 
  239000    1848.5876   -592.35162    293664.24    14.677404 
  239500    1893.0721   -588.88783    300435.06     14.64815 
  240000    1988.5912   -586.38672    310393.26    14.625008 
  240500    2083.8721   -589.53708    305712.06    14.689162 
  241000    2045.6536   -588.97795    298008.19    14.735571 
  241500    2041.3223   -593.40519    288914.72    14.668853 
  242000    2004.3541   -593.80552     292980.5    14.692849 
  242500    1987.7481   -594.63003    291630.71    14.688905 
  243000    2213.3419   -587.82655    313185.55    14.625223 
  243500    2180.9632   -592.12161    300670.94    14.671077 
  244000    2084.7837   -609.71511    302820.24    14.787062 
  244500    2131.2664   -619.48869    310038.81    14.943366 
  245000    1916.3211    -650.6048    287316.04    15.234036 
  245500    1934.3859   -675.91781    299971.77    15.333287 
  246000    1960.3781   -653.79751    295800.97    15.082305 
  246500    2143.7496   -647.08367    307882.54    15.075272 
  247000    2079.5837   -642.74043     302549.8    14.996791 
  247500    1790.3562   -664.44985    291665.69    15.193379 
  248000     1953.251   -605.22912    295806.67    14.770191 
  248500    2077.2666   -635.29252    303929.02    14.973311 
  249000    2166.7611   -645.10688     304278.7    14.847294 
  249500    1841.1651   -647.87515    303558.37    15.065032 
  250000    1848.3717   -666.97304    290521.03    15.183845 
  250500    1874.8747   -644.68321    303873.85    15.115178 
  251000    1897.4478   -645.85573    304549.01    14.980031 
  251500    2153.2323   -676.84555    294867.89    15.261783 
  252000    2010.2026   -709.00923    301157.14    15.519045 
  252500    1924.2257   -642.75624    310003.53    15.034103 
  253000    1847.7262   -652.33582    298051.46    15.045281 
  253500    2001.2887   -672.90212    291857.67    15.136068 
  254000    2011.2973   -732.68229    300247.29    15.477277 
  254500    2065.4238   -734.12766    303831.86    15.628291 
  255000    1985.1777    -688.2336    301053.59    15.064761 
  255500    1904.8811    -711.7445    296113.03     15.13924 
  256000     1974.707    -698.6896    301330.97    14.987752 
  256500    2115.1071   -726.78411    300594.58    15.314433 
  257000    1849.5616   -680.24143    299375.78    14.979018 
  257500    2074.0603   -668.33995    303047.97    14.987513 
  258000    1794.6061   -603.96312    306483.46    14.606581 
  258500    2067.8768     -687.376    300429.31    15.158864 
  259000    1783.2544   -662.53609    299826.56    14.941301 
  259500     2107.901   -680.17124    297633.69     15.14357 
  260000    2079.8647   -661.64481    300524.47    15.001067 
  260500    2148.6688   -679.47665    300696.49    14.934427 
  261000    2042.8112   -673.05488    296861.57    15.070095 
  261500    2098.6427   -639.38535    297136.86    14.860619 
  262000    1904.6314   -728.66176    298193.84    15.507653 
  262500    2063.8971   -694.91553    304370.81     15.12098 
  263000    1880.2814   -718.38613    293382.02    15.268713 
  263500    2042.6484   -628.41866    293976.57    14.747794 
  264000    1936.7636   -607.55927    306748.29    14.584508 
  264500    1980.2409   -629.50517    288343.56     14.72322 
  265000     1980.334   -677.17594    292480.04    14.944615 
  265500    2132.3597   -691.75741    302640.38    15.041152 
  266000    1952.8181   -680.09747    297070.73    15.033631 
  266500    2003.3133   -658.84722    300842.33    14.930944 
  267000    1992.4647   -624.53434    298690.76    14.727434 
  267500    2063.7523   -614.63079    311941.75    14.578981 
  268000    2034.4602   -620.65469    295312.46    14.683891 
  268500    1915.2292   -607.31988    310120.95    14.612508 
  269000    2108.4089   -598.26355    308382.28    14.546841 
  269500    1996.1979   -625.81437    299158.22    14.615865 
  270000    1890.5104   -655.90643    299337.56    14.856733 
  270500    1869.8828   -711.12776    301756.59    15.233934 
  271000    1932.9279   -751.88705    305210.58    15.528246 
  271500    2023.6116   -755.50954    302175.28    15.548352 
  272000    1966.5884   -718.94544    297270.15    15.273267 
  272500    2108.4199   -730.75403    298490.51    15.383184 
  273000    2027.9689   -725.04379    296250.94    15.305954 
  273500    1994.4404   -716.59774    297743.35    15.331413 
  274000    2273.3859   -721.39603    302738.59    15.408478 
  274500    2010.4187   -703.90412    304440.85    15.314459 
  275000    2164.6246   -661.17012     299240.6    14.977007 
  275500     2151.128   -605.80412     303596.5    14.661027 
  276000    2204.1161   -613.80787    297083.06    14.656995 
  276500    2075.1532   -616.80394    296954.32    14.613386 
  277000    2189.3827   -613.79509    295255.69     14.70607 
  277500    1971.4435   -614.38967     298481.2    14.659641 
  278000    2121.3422   -605.96036    295463.15    14.547501 
  278500    1973.2289   -686.84123       302375    15.114524 
  279000    2086.8387   -697.27311    302657.74    15.122976 
  279500    2031.9002   -601.81452    309467.13    14.532147 
  280000    2057.6988   -612.13507    293848.91     14.65306 
  280500     1862.179   -610.64948    307301.25    14.615844 
  281000     1868.269   -603.87114     295120.8    14.588192 
  281500    2005.5102   -620.01536    296639.82    14.676405 
  282000    2199.8166   -622.40733    305488.34    14.562939 
  282500    2107.8899   -605.10282    299899.35    14.416715 
  283000    2057.8253   -630.54916    284964.03    14.347921 
  283500    1825.2866   -612.49443     315487.3    14.301424 
  284000    1946.5492     -609.517    289583.43    14.391961 
  284500    1879.7563   -621.34666    294596.62    14.568198 
  285000    2011.2843   -683.70299    296680.01    15.017207 
  285500    2093.6087   -634.50049    300643.96    14.739063 
  286000    2052.7337   -617.60877    287303.26    14.663085 
  286500    1892.0379   -656.18768    302623.03    14.913094 
  287000    2024.0095   -661.80762    301785.12    14.998136 
  287500    1963.2825   -665.40835    298244.47    14.921073 
  288000    2101.5774   -663.50517    298133.91    14.943416 
  288500    2067.4918   -669.07735    296703.49    15.082562 
  289000     2107.937   -651.29589     301829.9    14.978986 
  289500    1936.1046   -645.31869    298682.91    15.126201 
  290000    1914.1995   -674.08703    301281.35     15.25064 
  290500    2096.3446   -685.92918    306114.05     15.29247 
  291000     1767.359   -687.43993    294624.44    15.487449 
  291500    1923.8498   -704.00468    303830.71    15.332809 
  292000    1940.8671   -708.36281    303393.75    15.289219 
  292500    1936.7357   -705.61645    303897.57    15.273637 
  293000     2008.262   -706.00636    303121.56    15.372435 
  293500    1956.4524   -666.72244    295251.84    15.072502 
  294000    2063.0482   -610.65728    296362.28    14.622364 
  294500    1981.7484   -614.85233    291367.89     14.73219 
  295000    2103.5101   -612.74761    307056.03    14.592867 
  295500    2028.1019    -605.3585    306262.99    14.555206 
  296000    2053.1689   -618.18517    300974.47    14.636132 
  296500    1940.4632   -699.05157    302958.59    15.208608 
  297000    1961.3081   -684.83552    295003.63    15.115328 
  297500     2043.151   -642.29729    310187.75    14.564126 
  298000    1945.0774   -645.38564    310094.94    14.603733 
  298500    1910.6643   -657.43078    293748.61    14.682198 
  299000    1899.1709   -689.66281    296511.87    14.946957 
  299500    2007.3336   -739.90069    307687.41    15.373364 
  300000    1902.6378   -752.49176    306643.01    15.439821 
  300500    1930.5673   -744.93363    306938.11    15.437325 
  301000    1836.0603   -744.94189    290992.05    15.383887 
  301500    2240.7453   -726.82159    300627.69    15.171716 
  302000    2023.2035   -730.25599    298034.31    15.170211 
  302500    2037.1211   -708.71159    310961.93     15.00786 
  303000    2031.9198   -708.48404    302085.26    14.966848 
  303500    1860.8319   -720.37298    300796.27    15.088909 
  304000    1819.5503   -661.25311    317482.19    14.571291 
  304500    1859.8709   -660.57774    309797.84    14.615098 
  305000    1885.9936    -724.8219    292104.65    15.073139 
  305500    2035.6057   -689.51397     302594.2    14.807371 
  306000    1948.1377   -679.93977    295107.31    14.725391 
  306500    2072.5143   -694.58648    298228.52    14.776536 
  307000    2004.1906   -656.95687    317926.69    14.575893 
  307500    1977.6726   -716.97909    303779.79    15.024483 
  308000    2016.0472   -660.15007    315207.45    14.610002 
  308500    1893.6885   -672.60225    298428.65     14.69588 
  309000     2087.539    -714.0451       313339    14.906873 
  309500    1983.6035   -679.48893    296181.22    14.773935 
  310000    2005.2017   -677.22349    311082.25    14.591977 
  310500    1888.4959   -689.96831    290313.36    14.619443 
  311000    1750.4044   -669.80537     305024.5    14.637153 
  311500    2169.1642   -683.40937     285214.9    14.709047 
  312000    1903.4443    -654.7314    291325.85    14.671717 
  312500    2043.7962   -678.89735    306037.43    14.800471 
  313000    2038.3273   -654.98349    306509.82    14.794548 
  313500     2083.239   -667.78114    286248.42    14.723821 
  314000    2159.7227   -668.22972    304715.38    14.682131 
  314500    1904.6826    -683.1268    298680.68    14.620879 
  315000    1897.0109   -692.73522    278286.78    14.756368 
  315500    1795.0294   -663.07576    311961.89    14.627743 
  316000    1829.5572   -683.65695    293683.38     14.68237 
  316500    1938.6499   -679.15446    315079.42    14.560617 
  317000    2012.0743   -673.82199    308418.22    14.584171 
  317500    2199.1126   -677.29258    291816.43    14.666222 
  318000    2151.3742   -681.51375    308090.95     14.57921 
  318500    2062.1358   -676.20554    301093.91    14.654528 
  319000    1827.4074    -679.7368    294193.05     14.62372 
  319500    1788.0659    -679.3529    293384.27    14.659707 
  320000    2045.2308   -668.73319    317081.75    14.559141 
  320500    2129.9561   -688.97067    291602.99    14.637214 
  321000    1789.5524   -707.52505     298462.7     14.93197 
  321500     2057.404   -720.47815     302047.8    15.173361 
  322000    1899.9157   -755.41822    291480.04    15.497395 
  322500     1915.332   -750.35562    306527.54    15.601367 
  323000     1948.875   -746.88394    299173.48    15.509457 
  323500    1916.3428    -756.9708    284588.63    15.664743 
  324000    2216.1351   -750.28257    291565.97    15.618135 
  324500    2006.0742    -753.5071    307232.93    15.596771 
  325000    1862.3786   -751.29077     301359.3    15.618618 
  325500    1934.3372   -752.47877     305339.3    15.562421 
  326000    2000.4732   -753.22826    286868.64    15.682579 
  326500    1893.9353    -748.3118    310824.41    15.488842 
  327000    2081.6957   -762.39198    270276.34    15.650921 
  327500    1956.5452   -756.23234    304268.59    15.586508 
  328000    2099.3616   -749.76116    313022.21     15.55134 
  328500    1934.9475   -743.75677    303219.46     15.57593 
  329000    1951.2202   -755.46313    302137.08    15.545504 
  329500    1961.1701    -754.5469    293099.36    15.635245 
  330000    2080.6535   -750.76567    302598.67    15.642151 
  330500    2029.3282   -750.32512    285553.08    15.702537 
  331000    1944.6749   -684.90436    292446.62    15.042139 
  331500    1994.0609   -620.01392    294585.78    14.652152 
  332000    1931.4475   -616.06369    298198.95     14.58833 
  332500    1988.1296   -602.61734    281625.22    14.477556 
  333000    2017.9653   -596.81682    307896.06      14.4592 
  333500    1951.9041   -657.75859    299335.11    14.730116 
  334000    2008.8083   -657.24428    301972.48    14.813315 
  334500    2005.5013   -602.68578    295226.27    14.504786 
  335000    1948.6867   -604.15813    298897.73    14.565271 
  335500     1861.896   -636.58059    303738.34     14.66602 
  336000    2127.0283   -586.56547    341672.41    14.403315 
  336500    2022.5848   -600.97148    299626.13    14.465333 
  337000    2085.3942   -601.26513    293687.52    14.502512 
  337500    1926.3124   -599.83678    307093.03     14.39186 
  338000    1981.8426   -601.67564    290941.46    14.448961 
  338500    2079.1622   -650.30496    305406.58    14.606325 
  339000    1876.0738   -663.09086    301617.08    14.649944 
  339500    1869.1522   -669.35668    301980.27    14.630038 
  340000    2135.0482   -692.38442    284116.95    14.722963 
  340500    1916.2253   -677.83848    287739.37    14.692991 
  341000    2040.0457   -673.08145    299446.42    14.652768 
  341500    1988.8192   -644.39037    299703.48    14.626959 
  342000    2006.3269   -677.00651    293393.15    14.769386 
  342500    1988.1426    -641.6681    310391.72    14.544212 
  343000    1900.8106   -726.20783    302173.11    14.983311 
  343500    2011.9462   -724.54188    306912.36    15.019549 
  344000    1809.7235   -715.14204    297019.91    15.075368 
  344500    1945.0044   -722.90581    300526.83    15.077782 
  345000    2049.1242   -734.03446    291981.83    15.153428 
  345500    2100.8136   -717.71234    307398.56    15.030358 
  346000     1972.371   -730.97901    296631.36    15.139855 
  346500    2127.9278   -718.88298    300699.22    15.101947 
  347000    1929.0101   -715.13819    306137.25    15.114401 
  347500    1812.0906   -701.22479    301346.83    15.030006 
  348000    1997.6715   -755.34197    310981.36    15.550171 
  348500    1955.9398   -739.42104    308907.66    15.347096 
  349000    1870.1855   -748.71402     301895.3    15.541132 
  349500    2022.9561   -757.11524       273928    15.549626 
  350000    2078.4469   -762.15935    274265.27     15.51594 
  350500    1900.7718   -699.28676    308393.76    14.983997 
  351000    1868.6385   -755.54292    294924.21    15.521459 
  351500    2034.7605   -755.11419    307238.49    15.471209 
  352000    1785.9513   -750.81653     296265.3    15.437234 
  352500    2001.6624   -758.27447    289809.87    15.499287 
  353000    1915.9151   -751.05107    298049.21    15.614353 
  353500     1918.538   -754.89376    302859.93    15.576516 
  354000     1973.021    -757.2746    294914.17    15.516463 
  354500    1786.8395   -747.72379     314028.4    15.403123 
  355000    1862.3672    -760.8178    311477.91    15.481546 
  355500    1989.9294   -755.27427    304117.44    15.569535 
  356000    1863.8537   -750.67717    315133.19    15.456207 
  356500    1936.5309     -754.281    321056.77    15.428617 
  357000    2041.0628   -759.81014    291624.98    15.491334 
  357500     2025.754   -757.79037     303951.8    15.535512 
  358000    2048.0432   -757.17911    302376.62    15.570808 
  358500    2004.7429   -754.45504    302067.36    15.407681 
  359000     1937.646   -749.91141    317841.97    15.469651 
  359500    1992.7029    -746.7107    306584.51    15.499072 
  360000    1813.4774   -712.04499    298684.79    15.095219 
  360500    1926.7732   -704.78143    300226.15    15.036787 
  361000    1975.5135   -623.16473    294889.27    14.697796 
  361500    2126.7728   -741.10176    311360.16    15.606251 
  362000    1982.1528   -694.54789    296208.31    15.161605 
  362500    2033.2569   -605.83015    304373.44    14.611217 
  363000    1969.9352   -602.96225    292112.18    14.660539 
  363500    2076.2482   -613.39381    294981.81    14.737719 
  364000    1860.0154   -610.95068    306010.89    14.602876 
  364500    2020.8159   -600.90153       307221    14.625938 
  365000    2102.0789    -600.6674    301485.39    14.620364 
  365500    2089.0634   -595.25385    294655.58    14.637834 
  366000    2064.9762   -596.80051    301048.79    14.626975 
  366500    1920.8437   -591.64167    292917.92    14.687899 
  367000    2044.3026   -594.19479    297022.01    14.636322 
  367500    1990.0412   -600.39555       303875    14.624449 
  368000    2022.6424   -589.99189    309082.92    14.599871 
  368500    1903.1919   -582.34962    324751.91     14.54567 
  369000    1793.9334   -589.52814    296713.45    14.591359 
  369500    1837.2563   -581.54046     305905.7    14.611573 
  370000    2129.9224   -590.69921    288055.41    14.702846 
  370500    2045.8242    -612.1652    299089.73    14.800012 
  371000    1881.2721   -600.33122    295409.78    14.787602 
  371500    1870.2235   -641.01165    295916.33    15.147458 
  372000     2034.869   -638.82212    295712.67    15.051224 
  372500    1947.9794   -644.28363    294835.21    15.122437 
  373000    1955.2052   -637.05203    305868.54    15.047356 
  373500    2028.2853   -706.24843    284851.58    15.614853 
  374000     2057.002   -697.88986    297836.76    15.573039 
  374500    2115.5347   -705.18382    291740.07     15.58424 
  375000    1992.6412   -690.73816    302698.24    15.541478 
  375500    1978.2306   -691.48435    308550.96    15.478641 
  376000      1988.84   -691.48141    302216.31     15.44454 
  376500    2045.3058   -703.60642     291192.7    15.549943 
  377000    2044.4442    -689.6799    304895.28     15.42859 
  377500    2082.8554   -709.34494    303455.64    15.500965 
  378000    1994.7982   -688.05174    308342.23    15.433199 
  378500    2061.9586   -690.25425    287693.98    15.622322 
  379000    1917.5305   -675.13557    309432.55    15.429386 
  379500    1924.2879   -690.62995    288625.66    15.594484 
  380000    2234.8134   -695.25886    299891.83    15.476488 
  380500    2054.3921   -695.94703    302830.79    15.500462 
  381000    1854.8675   -702.78727    293357.37    15.582545 
  381500    2107.7978   -649.46839    296266.37     15.15751 
  382000    2031.7638     -639.786    299870.47    15.137645 
  382500    2049.1392   -654.79672    297529.43    15.208595 
  383000    1942.2307   -641.47948    304681.42    15.041146 
  383500    2086.6081   -613.15866    299453.32    14.782855 
  384000    2032.4788   -582.72125     302213.5    14.602294 
  384500    1968.7916   -583.46249    282994.52    14.662598 
  385000     1955.918   -586.72313    284071.61    14.686969 
  385500    1892.8339   -592.11604    291679.51     14.61471 
  386000    1872.5133   -573.04638    313034.53    14.592422 
  386500    2119.6279   -578.39754     312926.9     14.61135 
  387000    2234.6332   -595.05112     291075.9    14.709034 
  387500    1932.5879   -573.12389    315138.82    14.617127 
  388000    2072.8088    -616.9669    303974.03     14.84878 
  388500    1931.1522   -696.69735    306351.44    15.381819 
  389000     2098.247   -688.12334    306090.45    15.462704 
  389500    2144.8015   -709.02947    290911.86    15.592124 
  390000    2042.3965   -685.54116    304967.08    15.445118 
  390500    1879.3522   -647.90157    297494.45    15.113766 
  391000    2073.3796   -633.85737    311852.67    15.000922 
  391500    2142.7829   -681.23714    309996.68    15.356598 
  392000    1982.5674   -709.88518     302940.7    15.461114 
  392500    2111.7549   -707.44529    293982.77    15.558516 
  393000    2123.0677    -687.2599    309697.96    15.385704 
  393500    2154.0234   -671.59471    305235.95    15.326424 
  394000    1970.4663   -701.98053     295567.7    15.517652 
  394500    2030.8672    -681.7668    306283.74    15.421633 
  395000    1964.0425   -696.24648    302175.05    15.464962 
  395500    1931.1281    -705.2251    294800.17    15.537001 
  396000    2211.1182   -684.12705    315589.44    15.444733 
  396500    2043.5553   -703.03826    291188.63     15.61927 
  397000     2019.836   -681.13475    309231.68    15.460308 
  397500    1947.1634   -697.37265    298200.75    15.559215 
  398000    2149.6602   -690.19074    305517.38    15.455234 
  398500    2052.7885   -698.97597    305244.75    15.525079 
  399000    1944.5228   -698.25518     300060.7    15.515413 
  399500    2026.4772   -693.24689    302588.75    15.536009 
  400000    2001.1015    -687.6287    301558.53    15.558382 
  400500    2014.9274   -695.58962    303803.96      15.4744 
  401000    2152.7206    -689.8711    305949.89    15.455423 
  401500    1717.5305   -692.65458    300030.67    15.522502 
  402000    1761.7441   -702.38284    299661.75    15.557775 
  402500    2095.3014   -692.35186    296362.07    15.530524 
  403000    1973.1118   -683.30934    304221.78    15.511747 
  403500    1958.9326   -695.00888    290056.42    15.550207 
  404000    2120.4852   -660.35152    294065.93    15.100376 
  404500    2050.2505   -653.83877    299002.75    15.139236 
  405000    2078.6018   -649.56681    301836.68    15.096856 
  405500    1946.0697   -657.94805    298173.68    15.107514 
  406000    2001.1386   -662.37294    295496.31    15.191175 
  406500    2046.3378   -701.49634    293455.78    15.526319 
  407000    2040.3021    -692.3552    308925.49    15.358542 
  407500      2014.32   -701.36255    296172.89    15.511146 
  408000    1845.6344   -696.89711    303954.89    15.429225 
  408500    1871.1015   -699.40886    300369.58    15.490582 
  409000    2119.6598   -662.53354    297274.54    15.196899 
  409500    1948.1919   -662.49256     296436.5    15.202029 
  410000    1971.9376   -682.45035    302738.14    15.373733 
  410500    2035.9223   -642.33809     305411.9    15.103619 
  411000    2010.6453   -652.13619    297546.99    15.128574 
  411500    1999.6863   -639.81607    306794.89    15.023423 
  412000    2125.6679   -649.13041    295451.08    15.071498 
  412500    2048.8728   -651.99618    291375.61    15.278373 
  413000    2057.1182    -663.1548    292688.41    15.096827 
  413500    2020.6026   -631.54092     309457.3    15.025746 
  414000    1858.9397   -609.11967    308112.23    14.889648 
  414500    2117.0314   -631.28198    297096.83    15.070058 
  415000    2241.4626   -644.07904    304352.93    15.098159 
  415500    2157.3988   -654.84783     295498.8    15.108428 
  416000    2178.6746   -652.24875    296510.83    15.157734 
  416500    1940.2906   -629.97886     310517.9    14.975711 
  417000    2090.5451   -637.27486    298187.19    15.127141 
  417500     1866.859   -620.53135    313680.72    15.015936 
  418000    2051.0485   -635.69061    307622.67    15.027015 
  418500    1972.0516   -653.82217    297140.54    15.058982 
  419000    2035.8776   -625.77932    294190.17    14.753019 
  419500     2034.516   -605.53673    291362.31    14.723871 
  420000    2040.2271   -579.51433     306508.6    14.611811 
  420500    2193.9608   -603.21695    298896.96    14.684724 
  421000     2000.608   -663.30665    301293.49    15.052902 
  421500    1917.0171   -648.00994    301432.74    15.081883 
  422000    2113.9132   -715.46702    286283.72    15.666153 
  422500    2008.4325   -641.72095    304967.01    15.036109 
  423000    1903.7721   -650.22497    296662.88    14.904738 
  423500    2031.9977   -598.26635    301319.78    14.564913 
  424000    1764.3657   -602.87797    300394.18    14.629811 
  424500    1918.1045   -601.16178    294021.94    14.614595 
  425000    1932.6605   -591.34471    307072.76    14.578567 
  425500    2029.1422   -618.84627    293033.69    14.726373 
  426000    2068.9763   -629.14225    304937.69    14.698487 
  426500    1929.7342   -595.85626    310128.48    14.572866 
  427000    2093.2479   -727.26595    295679.48    15.415733 
  427500    1967.5314   -684.60604       300432    15.223317 
  428000    2064.8768   -678.74514    296885.41    15.161635 
  428500    2066.6571   -706.88653    287979.72    15.498525 
  429000    2224.4257   -635.98094    310643.48     14.87995 
  429500    1998.7902   -640.47294    301030.33    14.963531 
  430000    1785.1778   -600.08872    296736.27    14.715342 
  430500    1900.0602   -656.82234     294846.5    14.881606 
  431000    2117.4023    -610.0646    299562.43    14.748011 
  431500    1967.4974   -592.32967     306588.2    14.593439 
  432000    1877.6684   -630.71775    302680.96    14.760801 
  432500    1966.8938   -607.57348    295731.32    14.662751 
  433000    1939.0236   -602.91773    290005.79     14.66867 
  433500    1797.4184    -662.0741    296524.56    14.995003 
  434000    2017.5011   -668.57319    292456.81    15.078954 
  434500    1884.4824   -665.78961    301001.43    15.089475 
  435000    1972.4008   -613.25359    293095.13     14.68846 
  435500    2220.7565   -614.45957    292197.41    14.673343 
  436000     1942.396   -609.39666    305465.51    14.598331 
  436500    2024.7793   -725.08969    301348.48    15.287501 
  437000    2055.1484   -706.17854    301429.06    15.018303 
  437500     1981.555   -709.25729    303545.43    15.083617 
  438000    1803.6468   -676.26801    297844.02    14.971931 
  438500    2084.3267   -672.33787    299372.84    14.937875 
  439000    2005.0668   -674.12424    295012.95    15.213139 
  439500     2140.287   -678.06112    301736.18    15.210292 
  440000    1983.5188   -612.22926    296772.87    14.691309 
  440500    2094.6841   -612.20944    295450.41    14.691273 
  441000    1833.2135   -591.83949    311127.33    14.545627 
  441500    1955.6226   -618.41456       297356    14.688795 
  442000    1856.1837   -659.06408    299399.75    14.936504 
  442500    1778.8413   -665.55494     297386.2    14.897641 
  443000    2183.8288   -661.31913    298884.71    14.925404 
  443500     1849.789   -715.81501    289189.57    15.317119 
  444000    1990.0008   -601.32475    305461.19    14.562821 
  444500    1831.6912   -619.82073    295872.81    14.739699 
  445000    1931.5305    -618.1115    291696.02    14.702648 
  445500    1943.7954   -597.63948       294980    14.579953 
  446000    2053.7188   -599.39893    306587.66    14.569103 
  446500    1923.5497   -596.99973    312434.63    14.542893 
  447000     1940.522   -666.94261    298658.75    14.909909 
  447500    2142.1253   -714.88976    298121.15    15.252307 
  448000    2045.6263   -715.66029    295262.86     15.33286 
  448500    1963.5349   -698.95415    305071.94     15.07367 
  449000    1818.4028   -600.63055    286828.54    14.432056 
  449500    2022.9434     -641.909    299052.31    14.509457 
  450000    1893.4234    -702.0437    291890.77    14.764442 
  450500    1862.0266   -681.53911    298594.21    14.615301 
  451000    1874.0544   -672.64213    300235.92    14.616379 
  451500     1888.522   -657.16465    305706.83    14.583914 
  452000    1917.1109   -644.84931    301102.39    14.623823 
  452500     1986.739   -587.35061    321344.39    14.381198 
  453000    1876.9491   -732.92225    281665.54    15.340025 
  453500    2031.1438   -755.52682    303006.39    15.546295 
  454000    1933.7554   -750.42869    279255.44    15.650037 
  454500    1919.0161   -746.28777     307941.6    15.611113 
  455000    2147.8756   -744.42327    303229.67    15.640862 
  455500    2125.8685   -752.67241    309763.84     15.60007 
  456000    1989.3636   -749.18664     303003.8    15.632781 
  456500    2085.6957   -747.50604    303541.56    15.666113 
  457000    1925.7994   -752.45966    304185.68    15.665513 
  457500    1982.6462   -750.21204    308095.63    15.649098 
  458000    2066.5257   -756.18884    298585.53    15.637394 
  458500    2032.8337   -754.38607    287615.01    15.614854 
  459000    1785.6191     -746.677    309166.14    15.559626 
  459500     1929.578   -749.90739    307580.09     15.58002 
  460000    1839.3541   -757.20665     284821.4    15.670598 
  460500    1950.8418   -752.11023     309506.3    15.538865 
  461000    1781.9585   -699.46358    299910.28    15.175665 
  461500    2190.6925   -715.25393    302181.38    15.216366 
  462000    1965.7807   -585.08353    323847.36     14.54254 
  462500    1899.8157   -629.25202    304162.68    14.861139 
  463000    2134.3945   -630.04143    306392.82    14.780701 
  463500    1974.2847   -620.43227    298479.53    14.732364 
  464000    2154.6092   -596.23229     306015.6     14.65301 
  464500     2055.514   -611.51069    293718.11    14.793468 
  465000     1954.221   -658.89627     295812.9    15.198537 
  465500    2191.9769   -656.67184    291381.01     15.12009 
  466000    2049.6972   -652.99051    295425.33    15.185099 
  466500    2153.2407   -632.52796    307182.73    14.857292 
  467000    2059.7261   -738.58771    309120.15    15.579149 
  467500    1970.5823   -743.22094    305686.25    15.663653 
  468000    1948.8678   -751.38676     305631.4    15.641754 
  468500    1867.2563   -750.69551    297741.25    15.690176 
  469000    1846.1674   -751.74292    303822.71    15.554486 
  469500     2151.162   -753.93041    281407.04    15.636529 
  470000    2299.6898   -748.14955    311586.16    15.544518 
  470500    2069.4644   -748.89904    305463.61    15.656396 
  471000    2081.1353   -750.51924    294166.17    15.698754 
  471500    2207.4366   -753.60318    295258.24    15.614995 
  472000    1903.5525   -741.97806    310697.64    15.609157 
  472500    1972.3399   -749.87936    295545.18    15.693906 
  473000    1964.1901   -741.21004    296052.14    15.582129 
  473500    2125.1703   -758.62977    268874.82    15.584014 
  474000    2214.6605   -760.53038     316328.3    15.400783 
  474500    1917.0778   -748.05346    302373.95    15.307768 
  475000    1894.8379   -750.78024    308382.93    15.284812 
  475500    2052.7881    -709.3248    302662.29    14.892792 
  476000     2192.708   -664.86051    313061.51    14.611665 
  476500    1962.3715   -666.13868    293541.57    14.729435 
  477000    1936.3696   -662.35007    307095.39    14.619958 
  477500    2063.2859    -682.5923    296427.76      14.6872 
  478000    2049.0554   -681.86198    310021.99    14.549296 
  478500    2027.3521   -635.51728    294415.07    14.415348 
  479000    1883.5902    -724.0646    300053.27    15.019053 
  479500    1993.3246   -732.70027    290930.69    15.059285 
  480000     1811.995     -736.601    294635.36    15.186456 
  480500    2031.0451   -759.56634     298755.5    15.366612 
  481000    1903.1585   -754.44384     300151.4    15.405511 
  481500    1922.9568   -750.48408    314865.41    15.299253 
  482000     1884.738   -699.00284    305967.89     14.94211 
  482500    1968.3157    -761.7855    296125.89    15.401844 
  483000    2007.4129   -748.73035    304405.79    15.289915 
  483500    1856.8722   -711.27158    299677.67    15.125986 
  484000    1871.8145    -713.7376     300704.4     15.22953 
  484500    1900.5072   -749.87588    293641.31    15.668803 
  485000    2004.2354   -651.12329    301260.51    14.891969 
  485500     1932.488   -636.30885    296968.14    14.893674 
  486000    1969.9811   -643.63859    298763.64    15.091207 
  486500    1908.3415   -654.94045    290697.32    15.124056 
  487000     1876.341   -608.09197    293682.63    14.786287 
  487500    2011.6287   -581.19681       302264    14.651495 
  488000    2012.9157   -670.78805     303417.5     15.30909 
  488500    2062.9304   -673.48297    308642.13    15.388576 
  489000    1861.7233   -691.40148    297249.53    15.573743 
  489500    1928.2303   -688.19481    299305.78    15.427483 
  490000    2122.2119   -698.43879    299515.83    15.544073 
  490500    2043.3292   -710.19483    300738.66    15.494981 
  491000    1913.7422   -747.02838    282291.27    15.810114 
  491500    2094.5183   -703.02052    305269.98    15.343052 
  492000    1971.3276   -644.84923    295793.91    14.909989 
  492500    2134.7859   -693.01242    304687.74    15.169648 
  493000    1975.0698     -715.061    295430.96    15.241117 
  493500    2081.4085   -712.07832    301407.11    15.201834 
  494000    1937.1522   -717.63768    297866.38    15.203569 
  494500    1790.0359   -706.86178    303948.18    15.123406 
  495000    2007.8251   -713.74095    305356.05    15.167942 
  495500     2037.911    -721.0082    292055.73    15.296275 
  496000    2066.9877   -716.21145    295812.35    15.292675 
  496500    2098.9516   -709.56487    302554.45     15.20809 
  497000    2030.3849   -711.54057    295466.99    15.235432 
  497500      1915.05   -710.04479    301052.21    15.223929 
  498000    1866.7188   -714.40912    297694.78    15.247673 
  498500    1948.7817   -724.05751    300234.13    15.207088 
  499000     1946.873   -722.42104    300692.92    15.225464 
  499500     2039.991   -722.15026    296957.63    15.282661 
  500000    1955.2765   -720.13103    300653.82    15.190235 
  500500    1841.5578   -719.62699    300580.06     15.22741 
  501000    1901.9036   -702.61152    311213.37    15.104054 
  501500    2002.7706   -711.66724    298520.72    15.227091 
  502000    2074.9722   -718.83937    297214.45    15.250534 
  502500    2010.5255    -714.8286    292239.03     15.22834 
  503000    1771.8176   -711.02618    297712.96    15.161005 
  503500    1903.9359   -707.79282     300314.1    15.175499 
  504000    1999.7607   -736.93071    284178.67    15.366728 
  504500    1891.7755   -710.05628    292543.38    15.250217 
  505000    1901.3013   -706.61776    300715.97     15.13747 
  505500    2079.5462   -716.42328     310625.1    15.204429 
  506000    1893.2402   -714.90753     299921.4    15.288463 
  506500    2019.3572   -701.18001    307317.57    15.163492 
  507000    2075.2242   -709.63334    302995.22    15.203761 
  507500    2095.8416   -638.69797    300950.06    14.826333 
  508000    2120.1885   -575.64795    328583.66    14.532471 
  508500    1884.7469   -632.87528    303374.95    14.845901 
  509000    1968.5376   -650.77665    291407.11    15.043882 
  509500    1997.6319   -616.39972    300148.29    14.784705 
  510000    1898.4275   -658.41061    301604.02     15.04372 
  510500    1997.5512   -721.39474     301383.7    15.528161 
  511000    1944.9928   -749.91747    290044.79    15.735713 
  511500    1829.0344   -715.59251    295944.07    15.548952 
  512000    2015.4879   -713.69135    297401.35    15.549348 
  512500    1895.4142   -644.95129    308030.12    14.998347 
  513000    1954.1235   -655.18127    293115.81    15.205917 
  513500    2176.8347    -646.5079    296510.53    15.170814 
  514000    1960.4771   -636.90765    303663.19     15.07563 
  514500    1952.8931   -712.35663    297646.37    15.682916 
  515000    1840.3845   -697.87749    295652.72    15.593673 
  515500     2083.541   -729.23494    306265.02    15.759385 
  516000    2107.6857   -698.41825    308095.28    15.516153 
  516500    2390.9186   -629.59962    305350.05    14.998248 
  517000     2170.915   -628.90154    300072.78      15.0215 
  517500     1762.636   -626.21528    302433.24    15.054299 
  518000    1934.3307   -624.65522    302679.56    15.041433 
  518500    2011.7319   -622.66099    303416.81    15.000521 
  519000    2090.2288   -633.06482    300933.64    14.930505 
  519500    2037.2101   -613.64971    308327.37    14.917008 
  520000    2056.4962   -619.57145    310061.64    14.920897 
  520500    1849.7628   -710.34884    303303.77    15.489624 
  521000    1828.5951   -748.48697    282374.42    15.833699 
  521500    2014.6128   -752.23339     305431.4    15.769703 
  522000    2176.5689   -745.21866    303434.05    15.796008 
  522500    2025.3502   -744.57767    298328.92    15.783643 
  523000     1759.822   -743.87742     298052.4    15.742306 
  523500    2047.9522   -743.48474    288739.94    15.691857 
  524000    2075.9889   -734.25792    303983.38    15.648474 
  524500    2146.7063   -728.26045    301111.24    15.593817 
  525000    2031.7096   -712.43937    297494.67     15.55161 
  525500    2087.8124   -731.45995    298930.22    15.751101 
  526000    1877.1758   -730.66873    296114.45    15.806132 
  526500     2096.085   -731.00681    309355.34    15.764673 
  527000    1900.3322   -689.62402    303395.66    15.515131 
  527500    1824.0799   -638.09481    298813.99    15.000382 
  528000    2138.0198   -620.32331    299949.09    14.796187 
  528500    1866.9902   -577.21008    307601.47    14.629788 
  529000    1815.6026   -586.31151    302654.05    14.655827 
  529500    2039.6647   -646.19016    301521.86    14.702013 
  530000    1983.8059   -702.96869    297257.61    15.055303 
  530500    1899.2075   -713.89236    300130.76    15.257498 
  531000    2144.5335   -716.75647    299483.47    15.257566 
  531500    2058.3781   -694.57119    304891.27    14.996413 
  532000    1936.5363   -751.92409    302701.49    15.654686 
  532500    2071.7598   -730.73617    298123.39    15.627338 
  533000    1996.3352   -655.22283    304617.67    15.097007 
  533500    2120.0737   -664.12714    296779.55    15.122947 
  534000    2039.3231   -646.65553    295139.08    15.013946 
  534500    2065.3611   -654.73401    302114.51    15.148071 
  535000    1935.6763   -639.03911    303674.43    15.097406 
  535500    1964.3054   -621.40138    313411.35    14.938201 
  536000    2108.9217   -630.61631     305959.7    15.005761 
  536500    1964.3696   -648.18204    300771.85    15.016169 
  537000    1797.1869   -633.77226     303745.9    15.009096 
  537500    2121.7315   -725.22915    297232.96    15.704767 
  538000    1937.2499   -681.01741     304877.8    15.370421 
  538500    1832.1339   -670.83285    296694.13    15.367094 
  539000    2012.2825   -697.78893    302913.59    15.450971 
  539500    2201.0723   -740.48579    309089.21    15.675893 
  540000    2054.5957   -732.78357    297510.65    15.594667 
  540500    2130.1639   -747.46503    304015.11    15.744118 
  541000    2096.3319   -739.64367    303260.73    15.691596 
  541500    1912.1134   -696.20354    303038.46    15.434735 
  542000     1881.567     -633.502    302018.72    15.069864 
  542500    1914.8978    -620.6828    310386.36    14.897738 
  543000    1895.9742   -596.30098    293696.14    14.724313 
  543500    1982.8912   -570.16519    329719.82    14.558169 
  544000    1966.4611   -581.56099       298249    14.582689 
  544500    2018.3822   -581.51073    300350.23    14.646989 
  545000    2023.7074   -575.87147    306358.16    14.663457 
  545500    2040.5765   -600.76014    291336.54    14.704101 
  546000    1981.3651   -571.62465    316664.32    14.602206 
  546500    2160.8911   -574.04618    316202.05    14.552411 
  547000    1984.0502    -622.0394    300255.62    14.844865 
  547500    2047.5263   -617.70203    304999.57    14.750418 
  548000    2038.6521   -578.72373    319158.36    14.577791 
  548500    2082.5799   -575.77937     301094.1    14.625976 
  549000    2054.1317   -632.26368    312105.32    14.892991 
  549500    1992.4225   -634.48788    305614.13    14.973972 
  550000    1890.7563   -647.70362    296996.19    15.084945 
  550500    1893.9268   -662.81899    290756.54    15.195837 
  551000    2044.0791   -649.45953    298016.97    15.123156 
  551500    1937.8958   -659.30257     292806.2     15.18085 
  552000    2143.0377   -657.24738    297922.21    15.097375 
  552500    1907.1251   -655.83153     292400.4     15.22642 
  553000    2049.6299   -726.19675    301755.83    15.722366 
  553500    2145.5608   -747.63965    290371.85    15.840929 
  554000    1895.4514   -738.44365    307914.39    15.738767 
  554500    2056.8738   -742.69929       311833    15.639769 
  555000    2117.5408   -753.17311    296329.38    15.719956 
  555500    2086.5424   -737.85557    299966.05    15.714797 
  556000    2203.9714   -750.35427    308887.36    15.755762 
  556500    2107.7971   -743.32768    305886.77    15.735263 
  557000    2053.3716    -744.4377    306801.35    15.715964 
  557500    1986.8803   -762.09347    288521.84    15.756536 
  558000    2182.2279   -747.06328    308188.62    15.640429 
  558500     2014.643   -726.75019    295338.03    15.371347 
  559000    2023.2283   -643.85375    310248.29    14.771565 
  559500    2075.8155   -716.89026    297570.58    15.215946 
  560000    2003.9838   -724.04596    300213.19    15.305295 
  560500    2040.7941   -673.06971    299339.94    14.960929 
  561000     2000.952   -588.96158    298998.84    14.617821 
  561500    1969.9559   -664.73192    295119.13    14.933759 
  562000    1987.1573   -631.37974    298185.67    14.796807 
  562500    1915.9328   -675.31481    297781.36    14.983481 
  563000    1970.1721    -690.9566    295614.56    15.002883 
  563500    2045.8912   -675.18843    306711.03    14.816951 
  564000    2021.5868   -691.46127    308629.26    14.892878 
  564500    1935.3631   -681.56663    302014.13    14.902094 
  565000    2031.3362   -684.14261    298245.45    14.853389 
  565500    1934.8291   -662.14776    301554.09    14.766525 
  566000    2086.6316   -658.29769    305607.58    14.785368 
  566500    1971.0133   -736.04641    280792.64    15.284848 
  567000    2201.2968   -679.15735    314693.22    14.842978 
  567500    1938.2736   -684.03304    307184.57    14.906708 
  568000    2028.1405   -731.28042    303684.32    15.196613 
  568500     1994.168   -736.78526    299772.77    15.249024 
  569000    1953.7067   -738.65177    282544.97    15.283342 
  569500    1873.1079   -741.98173    304086.73    15.298729 
  570000    1894.8698   -686.67712    299558.02    14.870042 
  570500    1970.5236   -670.79502    309043.25    14.775902 
  571000    2090.1595   -680.82204    299417.64     14.85059 
  571500    1817.8724   -669.67344    308185.69    14.795257 
  572000     2055.428   -728.79037    299589.73    15.130849 
  572500    2035.6128   -703.45658       292198    14.989408 
  573000    1934.2414   -715.29598    287124.82     15.10445 
  573500    2152.0566   -723.38224     306276.3    15.133745 
  574000    1913.8744   -677.08054    318016.98     14.76967 
  574500    2153.0527    -677.4481    313252.48    14.815908 
  575000    2126.1392   -679.82873    294131.66    14.796406 
  575500    2035.6089   -736.31007    292718.16    15.255969 
  576000    1804.4241   -659.47871    309619.24     14.72926 
  576500    1930.7652   -740.10814       297511    15.285657 
  577000    2047.5259   -736.25946    299425.93    15.267566 
  577500     2025.266    -691.7465    296550.83    14.959426 
  578000    2179.4787   -695.86083    299910.23    14.975792 
  578500     2125.742   -674.96053    297454.68    14.914492 
  579000    1985.8946   -686.31651    273362.56    14.965045 
  579500    2055.2814   -668.96214    304759.68    14.856006 
  580000    2089.5336   -643.31777    289402.25    14.711835 
  580500     2032.206   -643.40768     299286.2    14.718954 
  581000    2070.3076   -648.06011    294662.83    14.805731 
  581500     2110.937    -671.2079    293241.16    14.801862 
  582000    1932.3098   -665.62738    301237.53    14.830897 
  582500    2000.1512   -657.49141    283914.41    14.752131 
  583000    1960.2927   -676.94593    291736.73    14.930611 
  583500    2012.4657   -671.35592    272853.78    14.864284 
  584000    2039.4258   -669.49107     288760.5    14.788834 
  584500    2113.6996   -672.91876    293235.54    14.764963 
  585000    2001.2893   -656.26488     306417.5    14.691318 
  585500    2144.2231   -758.99401    300540.92    15.492879 
  586000    2036.6365   -703.57925    303936.19    14.957309 
  586500    1980.1351   -688.24477    311993.52    14.839913 
  587000    2091.0755   -693.93695    288286.12    14.852539 
  587500    2039.2818   -710.16892    300463.45    15.031969 
  588000    2065.2536   -736.89303    302094.42    15.289219 
  588500    2024.7946   -694.47455    303671.27    14.918157 
  589000    1826.3655   -730.04043    295239.35    15.158865 
  589500    2025.1992   -703.04978    303804.34    14.906596 
  590000    2272.5649   -703.71838     304149.7    14.958077 
  590500    1975.9087   -703.24855    287034.22    14.992106 
  591000    1993.3092   -721.65382    301319.22    15.174323 
  591500    2107.8969   -731.22639    303439.66    15.177227 
  592000    2054.7056   -722.48414    306807.21    15.190487 
  592500    2088.2959    -734.1733    282984.27    15.192668 
  593000    2073.8547   -726.64441    306178.18    15.103379 
  593500     1926.042   -747.71893       297080    15.397918 
  594000    1849.6407   -664.58827     304346.8    14.752557 
  594500    1710.8254   -731.50077    298812.12    15.197508 
  595000    2097.0406   -733.71767    305698.23    15.195355 
  595500     2163.583   -704.59411    282525.94    14.965623 
  596000    1975.9264   -648.06292    311791.77    14.691006 
  596500    2024.2217   -747.26927     295413.6    15.374841 
  597000    2089.0067   -727.78988    299412.08    15.174881 
  597500    1936.0516   -660.17532    309764.49    14.754754 
  598000    2088.3613   -680.26742    304090.56    14.812485 
  598500    1844.1422    -736.2326    303642.18    15.253954 
  599000    1906.7547   -676.56891    305012.46    14.817394 
  599500    2023.1434   -663.16273    308625.54    14.727523 
  600000    2068.8876   -733.04285    299056.12    15.194536 
  600500    2012.4063   -720.07975     308745.1    15.173131 
  601000    2031.9847    -733.2577    299382.84    15.226285 
  601500    1954.2835   -720.48272    301796.86    15.130698 
  602000     2053.378   -725.66241    307511.94    15.200905 
  602500    1988.5719   -723.62869    301829.82    15.159328 
  603000    2096.2545   -729.41461    306116.62    15.158504 
  603500    1917.2686   -728.92274    307922.47    15.153696 
  604000    1969.9314   -701.61299    302146.65    14.947804 
  604500     2001.352   -750.80132    296068.64    15.366259 
  605000    1834.1627   -730.11348    300110.12    15.161252 
  605500    2068.1253   -711.96235    306385.15     15.01588 
  606000    2083.3808   -693.00953    310555.39    14.888497 
  606500    2234.9347   -717.25205     303241.6    15.043943 
  607000    1731.4678   -671.71685    297843.96    14.801984 
  607500    2025.7958   -632.09393    307034.85    14.627791 
  608000    2094.5413   -646.78012    289048.77    14.791694 
  608500    2188.3376   -640.93205    302174.89    14.754132 
  609000    2013.7226   -647.68964    302268.18    14.733258 
  609500    1996.2182   -610.06937    297769.76    14.642021 
  610000    1926.5758   -623.21075    322376.24    14.578777 
  610500    2075.7692   -645.40314    300526.76    14.756977 
  611000    2114.5297   -635.06949    299618.47    14.748346 
  611500    2025.8066   -645.44276    297102.85    14.739386 
  612000    2002.3889    -651.5111    297139.59    14.754956 
  612500    2139.0952   -685.67502    310387.92    14.879122 
  613000    1955.0125   -701.66554    303506.77    14.952713 
  613500    2065.7524   -701.50861    301275.66    14.959674 
  614000    1877.3402   -708.00741     275752.8    14.928254 
  614500    1926.0748   -705.65654    289355.64    14.927211 
  615000    1887.9395    -696.1535    296396.31    14.951909 
  615500    1959.3594    -725.2959    307636.75    15.107195 
  616000    1995.6277   -695.98069    306301.63    14.887161 
  616500    2028.2145   -635.44049    302079.37    14.689811 
  617000    1856.9995   -659.15367    296440.62    14.758349 
  617500    2080.3796   -634.36603    314214.05    14.637871 
  618000    1993.5749   -627.23452    296452.12    14.664805 
  618500    1862.7995   -666.01019    302575.12    14.784317 
  619000    1790.8384   -659.36924    301574.27    14.778546 
[...]
14848500    2063.9339   -580.95255     289067.7    14.208716 
14849000     2059.684   -578.83134    290401.08    14.229795 
14849500    1924.0356   -576.70989    294634.97    14.238073 
14850000    1869.7978   -657.93637    294322.68    14.772127 
14850500    2130.3861    -586.5231     288610.6    14.418243 
14851000     1965.293    -637.3838    297489.55      14.6943 
14851500    2125.1766   -649.05126    305416.39    14.812845 
14852000    1927.7104   -661.41744    299394.05    15.041155 
14852500    1916.1456   -687.84512    299891.26    15.099319 
14853000    1839.6034   -625.91027    297561.03    14.629671 
14853500    2024.1985   -659.35279    297112.42    14.795709 
14854000    1859.2501   -620.15796    295885.79    14.524582 
14854500    1858.3037   -659.40839     296959.7    14.835793 
14855000    1908.0663   -635.75117     295147.6    14.702318 
14855500    2060.9749   -682.05877    299183.79    14.870022 
14856000    2054.7187   -698.58074    305590.55    14.952708 
14856500    2050.1176   -737.10485    297327.98    15.336539 
14857000    2029.9884   -723.41674    304409.11    15.209566 
14857500    1851.9998   -701.23261    307787.89    14.943024 
14858000     2065.401    -730.4279    304787.06    15.173212 
14858500    1824.1268   -718.78622    301804.13    15.174687 
14859000    2011.1464   -721.88255    309247.59    15.085369 
14859500         1956   -679.51151    305705.09    14.782662 
14860000    1854.7785   -692.03026    298785.76     14.88754 
14860500    2058.4184   -717.27076    293654.58    15.046809 
14861000    2109.9899   -666.23949    302274.32    14.585776 
14861500    2029.8607     -652.197    313202.31    14.555556 
14862000    1889.2237   -725.50715    292495.67    15.157938 
14862500    2037.5075   -716.90889    299117.74    15.054225 
14863000    1780.2189   -726.65662    297962.83    15.198212 
14863500    1775.2565   -695.60215    305688.72    14.921849 
14864000    1963.2176   -721.92639    300030.61     15.10503 
14864500    2010.4724   -704.05057    301244.02    15.037455 
14865000    2033.2593   -747.83281    293599.39    15.371102 
14865500    1911.8596   -708.87763    296638.98    15.052748 
14866000    2085.8116   -658.24931    296392.35    14.767225 
14866500    1927.8034   -633.77858    302550.83    14.699069 
14867000    2031.9159   -658.77622    305384.99    14.877424 
14867500     2129.841   -690.60151    303339.84    15.150182 
14868000    1969.2274   -694.69918    303589.02    15.142541 
14868500    2050.5161   -667.26458    300859.49    15.001835 
14869000    1988.3455   -663.61721    301948.16    15.016358 
14869500    1961.5549   -708.14273    289631.48    15.289093 
14870000     2182.403    -641.5067    304543.42    14.731322 
14870500    2016.7499   -717.77688    294525.88    15.560127 
14871000    2203.8925   -748.14751    302245.94    15.664838 
14871500    1920.7569   -697.83613    304093.97    15.222523 
14872000    2114.7759   -754.11252    293922.63    15.717239 
14872500    2005.4897   -717.94549    300282.71    15.418497 
14873000    2007.6784   -720.39681    303084.35    15.433348 
14873500    2022.2756   -732.63004    301180.74    15.567362 
14874000    2016.2805   -684.87669    300728.67    15.311859 
14874500    2092.8516   -696.68338    296865.81    15.336158 
14875000    1995.1846   -683.60519    302439.59    15.247723 
14875500    2129.8853   -721.74522    298348.33    15.618728 
14876000    2024.4018   -724.90192    299759.08    15.763948 
14876500    1844.2753   -653.02735    297821.45    15.328671 
14877000    1956.3305   -683.45685    299785.91     15.36831 
14877500    2020.5874   -662.29846    305771.47    15.331444 
14878000    1921.6258   -574.71767    313858.36    14.681637 
14878500    1993.7188   -629.72935    294181.81    14.927632 
14879000    1709.2764   -631.71823    298825.16    15.017676 
14879500    1858.7534   -606.78752    289515.69    14.738726 
14880000    1984.1045   -655.02065    296468.25     14.90322 
14880500    1909.7625   -594.29026    294648.75    14.793702 
14881000    1877.0861   -603.16536     299673.4     14.68859 
14881500    1935.4954    -615.9282    296820.39    14.724562 
14882000    1986.6635   -628.80688    296352.88    14.837485 
14882500    2082.6801   -572.91667    314569.62    14.601043 
14883000    1985.6658   -727.44795    291270.65    15.740875 
14883500    2167.4374   -729.36049    305857.43    15.882911 
14884000    1971.7732   -696.06491    304281.86    15.515881 
14884500     1908.981   -626.47951    300660.87    15.071772 
14885000    2077.3647   -670.16798    301758.67    15.331828 
14885500    1900.9241   -630.84454    302359.98    14.936801 
14886000    1984.4774   -640.79558    303350.29    15.137698 
14886500    1967.7368   -641.94036    296413.47    15.136028 
14887000    1980.8967   -686.16937    296803.34     15.40239 
14887500    2033.3805   -638.71393    300029.34    15.072071 
14888000      1966.04    -636.1357    303645.39    15.013453 
14888500    1968.4846   -698.84691    304392.72    15.464179 
14889000    2043.5579   -720.34501    302675.98    15.501191 
14889500    2027.4389   -740.39585    295310.07    15.652985 
14890000    2103.6103   -754.07626    295632.41    15.793904 
14890500    1904.2662   -687.90879    300746.98    15.222446 
14891000    1915.2104   -713.36421    300444.02    15.395811 
14891500    2016.4579   -744.03369     304190.4    15.568921 
14892000    1973.7279   -698.77053    305827.58    15.210279 
14892500    1975.9362   -737.77006    302311.76    15.549133 
14893000    2155.9171   -759.81607    297970.33    15.724095 
14893500    1941.9926   -748.09974    302864.13    15.578654 
14894000     2093.865   -753.99048    300622.72    15.753216 
14894500    1940.3212   -646.58218    300060.15    15.039207 
14895000    2083.7228   -647.93711    300771.59     15.17047 
14895500    2028.2893   -710.20097       294032    15.715042 
14896000    1801.3477   -628.33446    299005.62    15.131057 
14896500    2063.8793    -654.8938    298601.19    15.323132 
14897000    1896.1094   -638.61584    301912.54    15.148708 
14897500    2088.1131   -657.83482    305597.72    15.218879 
14898000    2054.0744   -645.29058    301659.22    15.180868 
14898500    2210.6502   -638.80495    302933.93    15.121224 
14899000    2163.8999   -678.43153    302737.44    15.402477 
14899500    2085.5539   -662.84386    297290.39    15.147824 
14900000    1878.3541   -681.06729    302959.35    15.140103 
14900500    1836.7828   -695.04336    305881.01    15.150193 
14901000    2023.3864   -675.14135    298233.81    15.082173 
14901500    2060.1553   -639.72603    299224.42    14.863467 
14902000    2184.2595   -692.06976     301753.1    15.251448 
14902500    2018.4224    -740.4698    304507.61    15.584098 
14903000    2053.0922   -706.49557    306316.61    15.151828 
14903500    1936.5313   -676.36765    299606.87    14.988198 
14904000    1912.2543   -626.40074    303644.74    14.718355 
14904500    1826.6222   -744.58144    299110.97    15.699008 
14905000    1954.9566   -756.84975    295885.17    15.830544 
14905500    2009.7083   -687.77835    304193.82    15.132423 
14906000     1800.601   -706.91088    293088.46    15.658786 
14906500    2099.3641   -688.72191    299652.72    15.527681 
14907000    2267.0092   -721.63371    305263.37     15.71719 
14907500     2059.908   -598.30987    300167.21    14.852176 
14908000    2049.5396    -694.2525     296934.5     15.54343 
14908500    2052.2241    -695.1588    297544.06    15.584581 
14909000    2014.5333    -697.4062     301570.9    15.544757 
14909500     1973.635   -656.29352    300440.67    15.160457 
14910000    2144.3222   -681.70718    298358.38    15.498492 
14910500    1824.7352   -620.63911    308879.29    15.040875 
14911000    2096.5496   -683.17794    301256.35    15.317913 
14911500    2030.3798   -695.06107    298646.66    15.398785 
14912000    2107.6434   -648.55024    297787.41     15.17612 
14912500    2016.8714   -691.41672    301561.66    15.548247 
14913000    1992.4298   -644.25097    308070.03    15.066352 
14913500     2063.881   -698.91098     299167.2    15.400192 
14914000    2016.8399   -747.06441    286100.09    15.561578 
14914500    1929.2052   -741.45554    305451.33    15.410631 
14915000    2138.9811   -724.92736    303656.34    15.411225 
14915500    1995.2421   -629.50313    302909.09    14.885962 
14916000    1912.5733   -714.85906    289721.08    15.451752 
14916500    1959.0941   -663.97511    301729.42    15.148309 
14917000    2129.9112   -661.84982    301015.87    15.127291 
14917500    1905.9387   -669.44439    295769.55     15.14984 
14918000    2057.6357   -655.64163    305025.08    15.129867 
14918500    1990.5562   -655.76462    302570.38     14.94944 
14919000    1946.9256   -708.25187    292210.98    15.234239 
14919500    1988.9196   -642.61892    307382.86    14.604888 
14920000    2050.9927   -663.57839     301329.3    14.707947 
14920500    2078.6132   -659.22479    307464.39    14.604494 
14921000    1990.8987   -644.84629    292994.29    14.479891 
14921500    2215.0304   -638.79631    301350.21    14.394057 
14922000    1904.9407   -720.92336    298837.22    14.835235 
14922500    2036.1392   -701.55848    302578.26    14.672231 
14923000     1799.242    -685.8911    304191.58    14.600929 
14923500    2216.2724    -686.5298    297428.53    14.670901 
14924000    2147.9097   -676.93116     305169.7    14.596428 
14924500    1888.0865   -686.81355    293312.28    14.793379 
14925000    2026.2149   -635.74449    326199.18    14.292777 
14925500    2071.6324   -642.50044    301475.82    14.378375 
14926000    1891.6001    -621.3889    304803.45    14.393827 
14926500    2145.9194   -625.41925    300078.46    14.516212 
14927000    2240.5394   -646.01434     290772.9    14.444303 
14927500      2018.04   -616.37347    307020.93    14.422706 
14928000    2127.4142   -714.38502     305211.7     14.90263 
14928500    1984.6499   -741.25093    302441.91    15.240942 
14929000    2055.4911   -734.82173    306465.69    15.216974 
14929500      1999.62   -705.53321    306764.51    15.197122 
14930000    2164.8186   -696.74419    286783.91    15.155609 
14930500    1939.6707   -660.75281    296361.31    14.957861 
14931000    1871.5526   -626.87447     300311.6    14.646027 
14931500    2083.9271   -714.93633    304152.61    15.252624 
14932000      2087.81   -735.49755    298307.72    15.301829 
14932500    2035.2431   -756.83878    303581.31    15.551003 
14933000    2018.1335    -677.2469    295783.73    14.909693 
14933500    1913.6688   -642.36165    294621.09    14.787004 
14934000    2103.9858   -661.24753    306001.55    14.719428 
14934500    2011.2179   -623.29654    301193.08    14.673982 
14935000    1930.2988   -602.33745    295167.42     14.59986 
14935500    2008.0735    -596.2746     286956.7    14.606181 
14936000     2004.773   -582.14252    304061.76    14.562802 
14936500    2096.9425    -646.6018    297076.76    14.961694 
14937000     2097.475   -701.29041    300726.71    15.569662 
14937500    2045.7006   -637.36821    305395.79    14.909975 
14938000    1885.4547   -713.00943    295094.62    15.495892 
14938500    1928.6455   -656.55194    303526.51    15.090752 
14939000    1928.9472    -710.2688    293612.47    15.458835 
14939500    2159.9933   -677.63883    299871.76    15.204412 
14940000    1859.4733   -675.39266    293735.52    15.147821 
14940500    1977.0305   -659.18888    299241.28    14.836403 
14941000    1929.7535   -677.48729    299258.67     15.02497 
14941500    2009.3609   -723.45069    299690.08     15.23792 
14942000    2253.4988    -729.5036    303466.35    15.263625 
14942500    1899.8361   -703.27347    299832.83    15.089278 
14943000    2031.4526   -745.55955     294136.9    15.347753 
14943500    1943.3455   -737.25591    294439.92    15.362127 
14944000    1920.5303   -708.35251     299079.5    14.988802 
14944500    1898.0136   -725.46078    305085.68    15.260601 
14945000    1938.3329   -729.65818    299351.68    15.261495 
14945500     2147.268   -734.53395    302740.35    15.336147 
14946000    2148.1198   -713.61446    305507.16    15.167046 
14946500     2068.666   -621.32646    305362.21    14.621349 
14947000    2102.9474   -647.77011     300590.9    14.929712 
14947500    1987.5593   -698.90135    292987.42    15.506812 
14948000    2081.9368    -646.6555    304286.71     15.14364 
14948500    2024.0807   -676.10869    301455.72    15.384137 
14949000    1921.2182   -656.27643    294770.71    15.234587 
14949500    2146.6909   -684.64341    306800.95        15.23 
14950000    1761.7788   -707.57315    297294.36    15.385203 
14950500    1884.8934    -692.8919     295656.6    15.369309 
14951000    2047.1412   -679.64606    298279.59    15.315845 
14951500     1874.159   -698.97674    298472.87    15.359733 
14952000    2120.2262   -630.08844    303353.08    15.067364 
14952500    2052.1062   -650.31433    300465.66    15.192459 
14953000    1818.2036   -611.33742     298973.8    14.978544 
14953500    1710.4682   -704.37467    297585.38     15.58226 
14954000    2077.2841   -690.70959    304018.28     15.64491 
14954500    2290.0922   -661.71208    301208.39    15.432355 
14955000    1954.8626   -645.70235    295437.34    15.270212 
14955500    2042.0512   -716.45394    298177.31    15.736169 
14956000    2055.6779   -634.01642    301687.38    15.160357 
14956500    2131.7073   -658.14346     298355.3    15.391129 
14957000    2160.3849   -657.75942    294283.71    15.308079 
14957500     1916.434   -670.35592    299149.86    15.294405 
14958000    2025.3956   -696.27245    299730.09    15.483829 
14958500    1986.7014   -732.72644    302874.48    15.709312 
14959000    2129.9229   -638.63455    303107.72    14.963979 
14959500    1780.4788   -574.51986    310152.91    14.550094 
14960000    1911.5544   -639.04989    302423.68    14.774552 
14960500    2015.8595   -622.81745    304728.75    14.655728 
14961000    2035.8569   -644.67226    306042.24    14.699683 
14961500    1902.0294   -711.60001    300807.79    15.310094 
14962000    2046.2871   -714.94307    300345.98     15.36463 
14962500    2073.1905   -714.96467    301709.49    15.321873 
14963000     2068.564   -686.09539    307385.53    15.052336 
14963500    1947.7809   -718.88422    300195.75    15.288382 
14964000    1919.0633   -637.81263    303796.56    14.701761 
14964500    1826.3904   -720.86324    299545.33    15.278318 
14965000    1907.7123   -683.16911    302860.19    15.044245 
14965500    1913.6872   -755.13825    295100.32    15.576986 
14966000    1969.3287   -734.43387     306607.4    15.381112 
14966500    1777.7848   -734.25825    298621.34    15.521822 
14967000    2036.0131    -757.5491    291742.63    15.807464 
14967500    1916.7643   -647.84512    296387.67    14.840556 
14968000    1916.6772   -644.42169    292519.28    14.788553 
14968500    1945.5479   -664.73406    300078.75    14.863115 
14969000    1958.4402   -760.44821    274192.97    15.846565 
14969500    1916.4674   -700.72136    302103.56    15.545468 
14970000    1886.0522   -693.03428    295649.25     15.67226 
14970500    1917.9117   -711.64266    300416.37    15.769186 
14971000    2055.9753   -688.79323     300236.1    15.603537 
14971500    2086.1199   -686.46669    305162.43     15.46054 
14972000    2031.6243   -598.08773    293534.27    14.757234 
14972500    2000.5015   -661.15202    300912.59    15.254343 
14973000    2004.1844   -706.45495    303244.87    15.567993 
14973500    1831.0428   -692.62277    302877.71    15.529189 
14974000    2050.3596   -702.15338    302413.47    15.577999 
14974500    1844.8565   -592.49876    288179.58    14.699564 
14975000    1933.0771   -638.93425    296434.41    14.884044 
14975500    2072.3211   -638.60633    302109.98    14.844534 
14976000    2209.3468   -684.30043    302355.36    15.290489 
14976500    2169.8977   -609.15633     301106.4    14.807893 
14977000    1918.5656   -581.54852    299091.34    14.590809 
14977500    1956.4094   -603.15445    289314.29    14.646708 
14978000    1840.2094   -640.68643    303280.74    14.883999 
14978500    2023.8042   -635.41806    301160.12    14.834763 
14979000    1904.0845   -640.29016    303348.39    14.957824 
14979500    1961.8635   -595.09124    299101.07    14.649264 
14980000    1978.2717   -578.84368    305612.91    14.651553 
14980500    1898.7348   -579.34856    301511.93    14.648238 
14981000    1912.3698   -627.29469    298466.03    14.831441 
14981500      1838.12   -589.39786    300461.54    14.707461 
14982000    2039.4179   -604.11875    303167.72    14.793889 
14982500    1983.7307   -587.87079    301951.85    14.643672 
14983000    1963.8333   -585.58189    294776.58    14.723774 
14983500    2021.4193    -566.0035    298000.83    14.591626 
14984000    1907.7532   -651.53167    299671.61    15.184124 
14984500    1963.1412   -716.25652    298607.55    15.775506 
14985000    2074.4675   -700.93755    301081.61    15.546178 
14985500    2029.2898   -675.65456    299959.82    15.353402 
14986000    2078.8841   -689.73691    300769.07    15.338235 
14986500    2100.4473   -712.11217    308748.26    15.377528 
14987000    1933.7916   -710.17377    297974.97    15.459433 
14987500    1888.9825    -645.8808    301482.28    14.961407 
14988000    1773.6486   -645.80714    296792.53    15.073678 
14988500    2108.1513   -713.19967     306233.2     15.49026 
14989000    2225.8452   -687.98518    301025.46    15.464613 
14989500    1991.3593   -637.48282     303151.4    15.030029 
14990000    1861.8042   -694.67155    300733.88    15.616533 
14990500    2049.8786   -707.66772    301413.21    15.598093 
14991000    1904.4386   -689.45779    299049.67    15.484282 
14991500    2076.5667   -625.82778    300548.91    15.049545 
14992000    2221.3859   -674.89094    297743.15    15.468475 
14992500     2019.456   -644.50682     301852.7    15.148076 
14993000    2178.4466   -711.42298    303025.24    15.614976 
14993500    2009.2294   -693.08388    297563.24    15.635841 
14994000    2036.4483   -683.36956    302030.13    15.460079 
14994500    2044.6801   -594.38301    303084.74    14.699399 
14995000    1784.5185   -627.73189    297449.93    15.033113 
14995500    1933.7871   -718.05005    302560.74    15.817874 
14996000    1853.9593   -727.29152    297971.42    15.911039 
14996500    1996.9693   -686.18775    304988.27     15.46606 
14997000    2050.4071   -587.74233    299027.08    14.623873 
14997500    2025.6859   -671.91392    300090.93    15.151512 
14998000    1899.3975   -708.10585    297259.46    15.505612 
14998500    2115.4202   -702.60751    301915.42     15.52738 
14999000    1990.3253   -751.02883    299852.37     15.68486 
14999500    1961.1951   -657.58723    294869.24    14.870056 
15000000    2036.6545   -594.58323    299052.27    14.716534 
Loop time of 74489.2 on 6 procs for 15000000 steps with 250 atoms

Performance: 34.797 ns/day, 0.690 hours/ns, 201.371 timesteps/s
99.0% CPU use with 6 MPI tasks x no OpenMP threads

MPI task timing breakdown:
Section |  min time  |  avg time  |  max time  |%varavg| %total
---------------------------------------------------------------
Pair    | 3701       | 3856.3     | 4011.3     | 191.1 |  5.18
Neigh   | 107.35     | 108.46     | 109.38     |   6.0 |  0.15
Comm    | 878.58     | 1037.9     | 1202.2     | 377.6 |  1.39
Output  | 617.22     | 617.25     | 617.34     |   0.2 |  0.83
Modify  | 68805      | 68816      | 68830      |   3.0 | 92.38
Other   |            | 53.04      |            |       |  0.07

Nlocal:    41.6667 ave 46 max 38 min
Histogram: 1 0 1 1 0 1 1 0 0 1
Nghost:    1228.5 ave 1239 max 1221 min
Histogram: 2 0 1 0 0 1 1 0 0 1
Neighs:    3843 ave 4444 max 3501 min
Histogram: 2 1 0 1 0 1 0 0 0 1

Total # of neighbors = 23058
Ave neighs/atom = 92.232
Neighbor list builds = 756449
Dangerous builds = 0

write_data	data.final.${p_id}
write_data	data.final.5
Total wall time: 20:41:34
