LAMMPS (8 Feb 2019)
Processor partition = 4
echo both

include         in.partitions
variable p_id world   0 1 2 3 4 5
include		in.temp
variable	temperature equal 2000.
variable	tempDamp equal 0.1 # approx 0.1 ps
include		in.pressure
variable	pressure equal 300000.
variable	pressureDamp equal 1.0
include 	in.seed
variable	seed world 74581 93734 128321 21934 495716 871038
units		metal
read_restart    Restart.lmp.${p_id}
read_restart    Restart.lmp.4
  restoring atom style atomic from restart
  orthogonal box = (0.133023 0.133023 0.133023) to (14.867 14.867 14.867)
  1 by 2 by 3 MPI processor grid
  pair style eam/alloy stores no restart info
  250 atoms
include 	in.setup
variable	out_freq equal 500
variable	out_freq2 equal 500

neigh_modify    delay 10 every 1
include		in.al
### Argon Potential Parameters ###
pair_style 	eam/alloy
pair_coeff 	* * Al99.eam.alloy Al

timestep	0.002 # According to Frenkel and Smit is 0.001

thermo          ${out_freq}
thermo          500
thermo_style 	custom step temp pe press lx


restart 	${out_freq} Restart.lmp.${p_id} Restart2.lmp.${p_id}
restart 	500 Restart.lmp.${p_id} Restart2.lmp.${p_id}
restart 	500 Restart.lmp.4 Restart2.lmp.${p_id}
restart 	500 Restart.lmp.4 Restart2.lmp.4



timer 		timeout 23:50:00 every 1000
New timer settings: style=normal  mode=nosync  timeout=23:50:00

# NPT

include		in.dump
dump            myDump all atom ${out_freq2} dump.al.${p_id}
dump            myDump all atom 500 dump.al.${p_id}
dump            myDump all atom 500 dump.al.4
dump            myDcdDump all dcd ${out_freq2} out.${p_id}.dcd
dump            myDcdDump all dcd 500 out.${p_id}.dcd
dump            myDcdDump all dcd 500 out.4.dcd
dump_modify	myDump append yes
dump_modify     myDcdDump append yes



fix             1 all plumed plumedfile plumed.dat outfile plumed.out
fix             2 all nph iso ${pressure} ${pressure} ${pressureDamp}
fix             2 all nph iso 300000 ${pressure} ${pressureDamp}
fix             2 all nph iso 300000 300000 ${pressureDamp}
fix             2 all nph iso 300000 300000 1
Resetting global fix info from restart file:
  fix style: nph, fix ID: 2
fix             3 all temp/csvr ${temperature} ${temperature} ${tempDamp} ${seed}
fix             3 all temp/csvr 2000 ${temperature} ${tempDamp} ${seed}
fix             3 all temp/csvr 2000 2000 ${tempDamp} ${seed}
fix             3 all temp/csvr 2000 2000 0.1 ${seed}
fix             3 all temp/csvr 2000 2000 0.1 495716
fix             4 all momentum 10000 linear 1 1 1 angular

run             30000000 upto # 60 ns
All restart file global fix info was re-assigned
Neighbor list info ...
  update every 1 steps, delay 10 steps, check yes
  max neighbors/atom: 2000, page size: 100000
  master list distance cutoff = 8.28721
  ghost atom cutoff = 8.28721
  binsize = 4.1436, bins = 4 4 4
  1 neighbor lists, perpetual/occasional/extra = 1 0 0
  (1) pair eam/alloy, perpetual
      attributes: half, newton on
      pair build: half/bin/atomonly/newton
      stencil: half/bin/3d/newton
      bin: standard
Per MPI rank memory allocation (min/avg/max) = 4.005 | 4.006 | 4.006 Mbytes
Step Temp PotEng Press Lx 
14999500    2004.3889   -630.69136    297245.38    14.733954 
15000000    1988.9804   -697.12922    298758.24    15.179257 
15000500    1914.1899   -747.75745    306682.87     15.66778 
15001000    1942.0429   -691.32501    304789.41    15.223422 
15001500    2053.1645   -693.88758    304343.61    15.108726 
15002000    2094.4956   -712.05367    298553.88    15.245636 
15002500    2015.6975   -580.18588     311493.6    14.526074 
15003000    2091.0708   -633.09989    300430.83    14.756154 
15003500    2164.2427   -701.61418     294332.5     15.10986 
15004000    1906.5853   -598.44184     312067.6    14.579167 
15004500    1957.9297   -646.46722    299554.75    14.841509 
15005000    2153.6445   -645.46919     309640.5    14.731316 
15005500    2059.2641   -715.13938    296663.86    15.266859 
15006000    2014.6437   -748.31409    300050.51    15.506469 
15006500    2105.3367   -732.35123    302914.01    15.487706 
15007000    2084.4777   -738.56998    298070.88    15.546031 
15007500    2076.9537   -696.15052    300001.49    15.081335 
15008000    1895.6512   -696.04022     301841.4    15.118243 
15008500    1834.8727    -616.5308    308783.57    14.672602 
15009000    1924.8554   -581.92114    302128.91    14.589048 
15009500    1995.7223   -595.96519    298703.61     14.60781 
15010000     1950.979   -632.18683    299008.55    14.825096 
15010500    1930.4979   -595.67716    298278.76    14.606233 
15011000    1983.0504   -660.83711       297986    15.119562 
15011500    2079.2546   -694.45293    300642.98    15.276564 
15012000    1985.9709   -701.42833    299681.03    15.437208 
15012500    2064.2069   -727.48661    301870.75    15.519104 
15013000    1817.6838   -731.96828    300618.19    15.403081 
15013500    2107.9581   -733.61996    300427.72    15.426112 
15014000    2016.1743   -724.51269    305919.11    15.207457 
15014500    1992.1515   -678.49067    300808.33    14.986806 
15015000    2095.2982   -703.02825    303851.74    15.238016 
15015500    1958.2628   -719.46247    298536.86    15.070952 
15016000    2063.2799   -701.95751    298719.01    15.071399 
15016500    1973.3813   -670.43779    294500.75    14.788397 
15017000    2014.2112   -667.72927    294839.18    14.761136 
15017500    2149.3271   -720.11227    298827.81    15.139658 
15018000    2066.2179   -759.58181    294597.01    15.518575 
15018500    2113.6428   -737.58587    307191.67    15.267983 
15019000    2051.5464   -725.61449    308994.09    15.278332 
15019500    2060.0728   -707.83945    305763.68    15.344544 
15020000    1979.1879   -723.39872     300292.6    15.500078 
15020500    2189.5912   -636.03963    297178.72    14.856082 
15021000    1946.8257   -704.56222    300310.95    15.454074 
15021500    2199.7141   -735.73004     307734.8    15.505754 
15022000    1828.8842   -725.18103    298754.09     15.51365 
15022500    1898.0334   -594.31227    290822.69    14.527945 
15023000    1907.9517    -583.4754    293996.48    14.361227 
15023500     1778.249   -583.02154    284876.88    14.379964 
15024000    2048.9208   -676.89894    299202.37    14.630019 
15024500    2050.3544   -686.22962     309567.8    14.577979 
15025000    1848.2495   -670.15981    302795.36    14.586853 
15025500    1934.0352   -693.98537    297603.17    14.713077 
15026000    2189.3494   -692.68497    304190.81    14.645341 
15026500    2037.7849   -688.09285    290584.38    14.685826 
15027000    1912.2077   -706.57476    304893.52    14.842995 
15027500    1996.2521   -682.08016    310120.36    14.550003 
15028000    2026.6578   -682.34379    302870.94    14.636742 
15028500    2110.0901   -681.83667    297264.06    14.646725 
15029000    1960.8919   -674.40986    305478.65    14.616023 
15029500    1961.4783   -699.16651    293582.42    14.731878 
15030000    1760.4985    -576.9985    313520.35     14.20191 
15030500    1895.7179   -577.73276    296284.52    14.229948 
15031000    1898.7055   -681.51424    295117.69    14.743971 
15031500    2019.7897   -669.08955    296215.85    14.760877 
15032000    1987.0537   -655.80736    302421.14    14.756987 
15032500    2084.6006   -704.09728    306234.51    15.082067 
15033000    1825.6114   -721.68284    292221.74    15.276123 
15033500    1965.8116   -716.53443    302005.23    15.256407 
15034000    2035.1857   -685.26504    298420.07    15.132505 
15034500    1999.2764    -611.8436    304465.86    14.547725 
15035000    2089.8128   -670.53617    296658.37    15.245465 
15035500    2093.6369   -670.40028    300962.28    15.134064 
15036000    1994.7908   -676.72674    300737.37    15.228584 
15036500    2072.5485   -664.83104    301228.28    15.101846 
15037000    2264.7581   -649.65776    301384.47    15.067783 
15037500    1879.8586   -652.30862    306261.53    15.041874 
15038000    2086.5436   -729.63178    296741.47    15.391105 
15038500    1925.1473   -723.87456    297256.53    15.543509 
15039000    2101.8571   -714.44474    297491.91    15.419307 
15039500    1907.6267   -634.78531    305776.94    14.922856 
15040000    2084.3775   -693.48797    305731.96    15.265648 
15040500    1892.1702   -667.16606    296040.12    15.021626 
15041000    2042.0576   -689.92108    301778.92    15.301465 
15041500     2140.243   -732.49518    303854.14     15.53094 
15042000    1878.9092   -748.72074    300259.41    15.538109 
15042500    2080.0754   -733.83887    306505.56    15.281768 
15043000    1936.0514     -737.907    302304.87    15.358559 
15043500    1867.1719   -750.43071     296804.8    15.495587 
15044000    2083.6585   -740.73777    290370.78     15.31145 
15044500    1943.7131   -709.09448    305315.45    15.148471 
15045000    1905.4619   -713.60807    287866.48    15.231451 
15045500    1987.3648   -708.65891    305324.57    15.269799 
15046000    2029.8589   -715.14431     309034.2    15.346702 
15046500    2167.4916   -662.65899     301715.3    15.169934 
15047000    2025.1697   -698.36745    301549.56    15.309708 
15047500    1994.3032   -670.32764    303765.21    15.043537 
15048000    1866.2643   -669.96872    301558.72    15.176992 
15048500    1995.0555   -679.62018     299892.5    15.378572 
15049000    2040.9076   -690.55987    303139.37    15.620294 
15049500    2030.2137   -689.12349    301904.44    15.558932 
15050000    2015.4514   -677.76798    301255.84    15.583519 
15050500    1962.7469    -615.4487    300534.09    15.008063 
15051000    1908.1594   -688.73474    295170.97    15.630415 
15051500    1981.5042    -675.1232    299471.15    15.486901 
15052000    1955.0215   -635.70233    302553.35    15.195051 
15052500    1961.9438   -657.50689    301452.13    15.286348 
15053000    1808.8839   -630.48959    296215.51    15.015582 
15053500    1931.5155   -628.81929    299041.08    14.979351 
15054000    2039.4389   -693.39321    300980.63    15.576295 
15054500    1849.6414   -670.34492    299036.22    15.397906 
15055000    2010.1053   -580.85611    301522.23    14.641777 
15055500    1895.5447   -564.57446    308011.43     14.53811 
15056000    2096.7887   -625.46511    304690.82    14.840506 
15056500    1957.1167   -636.71105    302009.72    14.791796 
15057000    1920.1783   -641.22739    299341.53    14.833968 
15057500    2091.5413    -625.8172    302593.05    14.721947 
15058000    1903.8049   -636.05224    300262.51    14.712155 
15058500    1865.3775   -643.98315    297351.67    14.805484 
15059000    2044.6464    -701.6245    297574.41    15.328606 
15059500    2018.6087   -725.56959    299233.38    15.698483 
15060000    2076.2978   -723.31215    300780.25     15.57872 
15060500    2148.1227   -750.25699    301601.48    15.757834 
15061000    2141.5502   -747.29182    297203.26    15.790838 
15061500    1722.7366    -661.1495    298398.46    15.144429 
15062000    1954.6687   -656.49335    299795.52    15.212579 
15062500    1973.8678   -633.57846     302480.3    15.137644 
15063000    1903.2298   -694.71589    301332.47    15.548153 
15063500    2169.4531   -659.47821    302901.45    15.204321 
15064000    2005.7031   -638.95056    300384.24     15.09586 
15064500     2064.602   -667.36276    300942.31    15.257017 
15065000    2095.5333   -594.49876     293498.4    14.651674 
15065500    2059.7101   -686.76704    298818.65    15.462969 
15066000    2201.7447   -696.82247    301648.73    15.600596 
15066500    2042.2149    -701.5789    300406.78     15.61043 
15067000    2268.8996   -689.93862    302577.83    15.467312 
15067500     1903.473   -600.91728    294193.15    14.779118 
15068000    1753.8336   -618.52263     293152.3    14.748981 
15068500    2142.3822   -686.03459     307274.2    15.034498 
15069000    1949.9647   -755.92333    296304.81    15.791429 
15069500     2099.949   -755.67487    298135.01    15.745186 
15070000     2023.095   -749.13259    297281.72    15.838002 
15070500    2180.0938   -720.46237    299404.11    15.754267 
15071000    2052.1051   -623.44607    308846.25    15.036733 
15071500    1873.9017   -645.72979    290749.33    15.181584 
15072000    2012.7132   -626.04572    306634.82    15.029778 
15072500    1789.9765   -682.53374    295207.12    15.401547 
15073000    1987.6966   -643.08118    303059.53    15.024033 
15073500    2150.4863   -678.49462    289499.07    15.395178 
15074000    1962.3049   -669.39301    297779.82    15.248323 
15074500     1999.245   -676.18323    294210.63    15.176092 
15075000    1975.2695   -702.71195    303742.75    15.269018 
15075500    2039.5179   -696.49803    303139.68    15.150153 
15076000    1991.6055   -580.17612    295621.94    14.427744 
15076500    2111.5738   -584.16291    289014.63    14.477149 
15077000    1945.7929   -622.18826    309164.65    14.568356 
15077500    2245.7354   -717.03509    302138.88    15.144357 
15078000    1827.2287   -733.24042    296282.45    15.286588 
15078500    1995.2383   -722.62032    303079.83    15.106953 
15079000    2223.8188    -714.4039    309383.28    15.066271 
15079500    1981.7187   -697.65146    299899.29    14.992763 
15080000    1982.0485   -696.12401    292999.67    14.976342 
15080500      2181.38   -694.24282    301301.08    15.014568 
15081000    2030.9838   -719.60918    302456.71    15.191968 
15081500     1917.904   -733.12197    297218.21    15.370206 
15082000    2102.8533   -742.38375    304549.61    15.562463 
15082500    1992.8018   -740.93042    296159.54    15.516658 
15083000     1952.864   -735.52454    302648.15    15.463242 
15083500    2013.6381   -749.93135    299813.19    15.623631 
15084000    2132.9499   -680.51273    299179.53    15.304593 
15084500    1975.9379   -668.94884    298925.42    15.226286 
15085000    1982.5473   -653.26052    297054.76    15.103263 
15085500    1937.8348   -639.97884    301386.23    15.016046 
15086000    1928.8777   -743.64713    306044.11    15.653078 
15086500    2038.9471   -723.23359    300350.95    15.302278 
15087000    2101.3046   -742.14642    299702.38    15.458109 
15087500    2175.0501   -742.33877    303554.58    15.489606 
15088000    1913.8918   -729.49879    296963.78    15.272888 
15088500    1938.2379   -698.98014    301226.08    14.907885 
15089000    2106.1336   -753.32404    285496.25     15.71095 
15089500    2104.3957   -750.67204    304199.29    15.543066 
15090000    2063.4423   -752.54847    317884.48    15.637616 
15090500    2130.6101   -746.67471     289896.9     15.46952 
15091000    1959.1303   -694.08353    303071.74     14.99822 
15091500    1945.4531   -707.27879     300036.6    15.017168 
15092000     1996.839   -727.02512    297560.25    15.273771 
15092500     1990.041   -739.79571    303361.13    15.593442 
15093000     1954.147   -756.60827    300175.37    15.669972 
15093500    2042.3325   -735.12619    303523.22    15.297306 
15094000    2172.8328   -719.65383    308436.03     15.07122 
15094500    1889.6586   -744.55977    301745.62    15.397364 
15095000    1856.2551   -732.46889    298952.95    15.326377 
15095500    1945.3546    -652.8327    292794.87    14.678519 
15096000    2101.6001   -658.47116    292289.08    14.698694 
15096500    1943.9034   -733.88037    298868.59    15.232848 
15097000    2062.0082   -725.77248    300897.66    15.266758 
15097500    2031.9976   -733.80152    303340.88    15.549908 
15098000     1965.968   -714.43845    304553.73    15.374409 
15098500    2127.7756    -696.3458    302024.76      15.2256 
15099000       1950.8   -656.97246    301319.51    15.069365 
15099500    1982.5279   -647.55508    298869.81    15.130457 
15100000    2169.8274   -719.86916    300044.21    15.491547 
15100500    1819.1642   -684.24911    299432.53    15.269966 
15101000    1955.7023   -716.79034    297969.16    15.355854 
15101500    1958.2819   -740.98629    301675.24    15.705657 
15102000    1924.3845   -680.10285    301078.26    15.111032 
15102500     1911.392   -704.05958    298728.48    15.170227 
15103000     1970.165   -608.03134    317725.24    14.531939 
15103500    2090.0303   -711.35122    305691.63    15.325746 
15104000     1864.991   -738.86406    303432.04    15.528528 
15104500    2009.3321   -753.56645    297053.24    15.687999 
15105000    1984.4486   -719.97176    303579.97    15.485184 
15105500    2061.8834   -712.52796    301986.94    15.661276 
15106000    2214.5852   -729.06361    300834.96    15.775984 
15106500    2100.7549   -631.74812    300319.14    15.121042 
15107000    1971.9735   -658.50988    297679.59    15.285154 
15107500    2000.1659   -667.17845    295795.53    15.413164 
15108000    2081.4944   -645.56182     302723.1    15.278952 
15108500    1928.0022   -646.50036    297513.54    15.265213 
15109000    1944.3005   -653.37365    299394.07     15.23338 
15109500    2113.2397   -692.72937    305686.82    15.456044 
15110000    1807.5731   -729.26801    297382.02    15.810592 
15110500    2143.7662   -722.12292    305067.17    15.846128 
15111000    2095.7751   -689.95877     302905.5    15.520822 
15111500    1829.5733   -698.43794    296958.39    15.648093 
15112000    1961.9571   -695.10909    301054.38    15.530643 
15112500    1822.5039   -686.71356    303083.26    15.219085 
15113000     2095.331   -683.92181    297332.71    15.426534 
15113500    1855.6795   -628.65225    303406.19    14.953247 
15114000    2067.8278   -700.10283    299806.29    15.462771 
15114500    2152.0809   -629.73066     313344.5    14.913121 
15115000    2125.4549    -703.8744    306984.35    15.393942 
15115500    2005.4325   -695.21874    302707.81    15.349189 
15116000    2035.8433   -673.07761    302903.66    15.175349 
15116500    2123.7265   -672.74723    298511.85    15.251035 
15117000    1981.3277   -643.48159    303296.32    15.051717 
15117500     1966.182   -686.95773    302770.88     15.31484 
15118000      2107.63    -666.2838     299263.2    15.150007 
15118500    2303.1461   -716.10336    302283.09    15.461595 
15119000    2039.0402   -617.78362    305538.85    14.653794 
15119500    2179.0167   -650.09999     308768.2    14.577636 
15120000    2120.3808   -642.83124    320359.38    14.521682 
15120500    1921.4287   -682.55347     296563.9    14.698911 
15121000    1978.4149   -687.66099    297718.69    14.689133 
15121500    2151.8911   -654.50363    312339.25    14.512872 
15122000    1906.1429   -689.70531    297776.63    14.931714 
15122500    2034.4856   -684.66153    302046.34    14.802394 
15123000    1947.0409   -661.57322    302210.73     14.72133 
15123500    1983.6585   -662.23008    298987.23    14.772381 
15124000    1969.2767   -684.92088    299067.79    14.863501 
15124500    1797.2942   -631.52133    313304.23    14.625776 
15125000    2256.8926    -687.6608     287029.3    14.831948 
15125500    1750.1658   -726.53617    302630.72     15.30795 
15126000    2169.3629   -724.50948    305938.11    15.349483 
15126500    1974.2315   -724.46245    306250.77    15.121164 
15127000    2188.9071   -655.25734    308768.64    14.674769 
15127500    2018.2516   -654.71819    290691.65    14.807731 
15128000    1782.1166   -664.20231    296295.16    14.827759 
15128500    2369.7356   -695.15948    303220.22    14.969327 
15129000    1848.9645   -617.81311    296230.68    14.488411 
15129500    2005.3506   -747.70153    304720.38    15.361995 
15130000    2322.1918    -760.1009    310707.36    15.512709 
15130500    1758.3747   -739.86142    295774.76    15.370438 
15131000    1972.6103   -708.47961    303094.06    15.015552 
15131500    2001.8502   -694.58626    310184.75    14.890003 
15132000    1890.2151   -667.13137    291825.84    14.775191 
15132500    1963.2688   -742.90203     295355.3    15.322076 
15133000    1996.6889   -750.44205     294330.9    15.435658 
15133500    2023.7246   -656.90063    303199.53    14.729928 
15134000    1969.1071    -629.7464    300956.42     14.59973 
15134500    1898.4642   -742.89464    287986.37    15.384763 
15135000    1780.8809   -705.42597    291027.95    15.172118 
15135500    1974.7735   -662.72479    299769.86    14.923115 
15136000    2003.6351   -651.85229    297803.76    14.727677 
15136500    1893.8067   -637.00645    302220.26    14.720447 
15137000    1926.3672   -717.06915    302434.69    15.343416 
15137500     2042.046   -723.66717    298652.95    15.254933 
15138000     1851.282   -730.66753    276837.46    15.402575 
15138500    2164.6904   -657.01889    301739.64    14.738785 
15139000    1912.8229   -673.16216    292183.06     14.85303 
15139500    1901.1768   -582.52881    290099.18    14.469399 
15140000    1858.5788   -621.34845    300928.66    14.557354 
15140500    2132.7996   -630.61003    308845.13    14.717566 
15141000    1959.1752   -638.72667    303392.63    14.737474 
15141500    1891.5349   -611.51523    298570.98    14.686422 
15142000    1861.9272   -656.02755    299469.82    15.008052 
15142500    1965.9857   -720.52904    287924.96    15.419022 
15143000    1937.4788   -744.24109    298638.53      15.5936 
15143500    1977.8852    -712.8339    298321.41    15.456789 
15144000    2033.5183   -670.35448     301871.3    15.243098 
15144500    2158.2037   -656.13135    300336.84    15.079343 
15145000    1878.9119   -671.36638    296591.59     15.25634 
15145500    2015.9177   -718.28259    300814.35    15.434057 
15146000    1888.7392   -720.08762    298010.41    15.431513 
15146500    1744.3389   -685.98526    300508.55    15.192535 
15147000    1840.3915   -678.43197    298447.93    15.096132 
15147500    2100.7403   -757.82106    283269.94    15.426962 
15148000    1950.2076   -739.10848    305752.72    15.238234 
15148500    2200.6119   -630.95475     304414.8    14.434049 
15149000    1983.8121   -717.50198    293813.73    14.980858 
15149500    1949.2696   -705.91221     298134.6    14.899266 
15150000    1916.8992   -699.32729    305113.85    14.874604 
15150500    2080.3647   -649.82751     312711.5    14.584335 
15151000    2070.5316   -726.45231    280136.93    15.043278 
15151500    1981.8357   -663.23437       298899    14.638792 
15152000    1938.5025   -665.36354    299813.98     14.60974 
15152500    2099.5612   -723.95112    297891.49    14.977827 
15153000    1861.7671   -624.80147    305521.61    14.390693 
15153500    2170.7016   -670.50873    298395.13     14.63233 
15154000    1980.1063   -645.15402    301815.37    14.555049 
15154500    2072.2898   -668.81176    301472.86    14.638213 
15155000    2005.2615   -694.16202    301938.03    14.635725 
15155500    1919.3416   -683.98941    306764.47    14.595548 
15156000    2149.5972   -625.82758    335854.66    14.285524 
15156500    1862.2913   -732.75249    290653.74    15.102651 
15157000    2035.4779   -699.70085    299743.32    14.820194 
15157500    2076.3784   -717.42944    309062.72    14.994687 
15158000    2026.1419   -688.95677    293868.15    14.799406 
15158500    2007.4939   -681.62056    298334.76    14.728064 
15159000    2031.1961   -635.56148    306296.75    14.649104 
15159500    2116.5204   -683.31411     298026.7    15.073867 
15160000    1990.5643    -655.9204    302504.21    14.993554 
15160500    1850.2855   -718.04803    292947.04    15.465426 
15161000    1862.4272   -632.27463    303920.28    14.709202 
15161500    2091.3077   -642.71864    292985.05    14.731376 
15162000    1946.0804   -648.37267    297774.33    14.733752 
15162500    1855.0731   -670.41419    298250.18    15.070305 
15163000    2001.3839   -646.34878    300345.57    14.849052 
15163500    2105.7276   -719.42467    298287.34    15.140134 
15164000    2075.7804   -742.36205    303527.87    15.587241 
15164500    1881.6553   -751.88752    299837.55    15.511308 
15165000    1975.2191   -739.05577    303187.12    15.478322 
15165500    1953.3121   -722.62218    297195.64    15.115259 
15166000    2129.0571   -674.98821    300040.32      14.9017 
15166500     2204.835    -582.5191     307978.7    14.428327 
15167000    2090.7247    -569.2575    354456.17     14.29972 
15167500    1774.5364   -573.23959    321004.63    14.375336 
15168000    1897.3701   -702.78114    301626.25    15.153738 
15168500    2027.4325    -730.0256    306332.95    15.386755 
15169000    2020.4341    -712.2074    303253.39    15.446272 
15169500    2104.9078   -699.60603     305112.3    15.234012 
15170000    2042.8853   -734.26354    300517.31    15.729934 
15170500    1992.2109   -751.37073    304156.97    15.757336 
15171000    1869.7015   -687.45863    298367.77    15.025251 
15171500    1937.4938   -711.74488    298789.57    15.173203 
15172000    1954.7441   -717.17238    294714.57    15.177016 
15172500    2097.3982   -745.06296    294921.97    15.461671 
15173000    2021.4744   -736.25544    299389.95    15.552626 
15173500      2012.91   -719.38184    301351.35    15.365517 
15174000    1999.1682   -607.40372    295477.87    14.648904 
15174500    2100.0289   -646.63104    294142.47     14.86563 
15175000    1775.2253   -587.71712    298677.15    14.661107 
15175500     1943.655   -623.83296    305972.45    15.116586 
15176000    2005.8941   -734.99147    296488.73    15.809414 
15176500    1963.2044   -656.60338    298975.57    15.016736 
15177000    2052.8208   -722.82309    306415.23    15.426367 
15177500     2114.635   -709.18649    300393.86    15.353047 
15178000    1913.2814   -686.98025    300169.95    15.338867 
15178500    2032.3863   -668.41871    300194.77    15.191004 
15179000    1837.7895   -672.87285    296417.78    15.297426 
15179500    2066.3624   -695.54689    299482.82    15.326072 
15180000    1944.5212    -713.8274    303423.53    15.233725 
15180500     2057.663   -756.48177    304037.17    15.658998 
15181000    1984.8315    -706.7618     301413.7    15.023826 
15181500    2028.7022   -740.51756    294972.85    15.357279 
15182000    2073.1905   -757.35732    295194.53    15.618703 
15182500    1964.4878   -714.32615    304519.98     15.16834 
15183000    2074.9524    -710.2325    308435.65    15.124455 
15183500    1993.3886   -724.91308     292197.1    15.401999 
15184000    2190.2131   -724.35602    302980.57    15.344051 
15184500    1856.1256   -692.49624    298575.83    15.231135 
15185000    1955.6285   -706.64974    298183.13    15.360076 
15185500    1990.4508   -714.86147    301458.48    15.144977 
15186000    2035.1241   -585.17348    296692.91     14.36212 
15186500    2180.1041   -608.49461    310594.44    14.405744 
15187000    2039.7588   -618.05215     297761.2    14.474538 
15187500    1815.5439   -589.17427    282490.23    14.426651 
15188000    2005.1204   -572.98394    308370.74    14.486099 
15188500    2089.4762   -619.57965    303962.01    14.766439 
15189000    1897.6715   -689.37698    298336.84    15.360353 
15189500    1966.4045   -659.30295    300079.03    15.180423 
15190000    1907.0616   -672.28535    301603.12     15.24737 
15190500    2089.9314   -725.02118    290018.34    15.677994 
15191000    2098.4894   -640.04147    303440.23    15.059359 
15191500    1986.7982   -683.94321    298683.97    15.344495 
15192000    2213.7679    -688.9917    302668.18    15.316434 
15192500    2042.5544   -680.00753    299620.65    15.352321 
15193000    2093.0632   -628.98991    303774.07    14.836289 
15193500    1930.3604   -713.98985    279739.88    15.485628 
15194000    2008.5999   -663.99827    302102.19    15.134214 
15194500     1978.104   -678.58827    298932.55    15.263864 
15195000     2053.147   -651.09847    302811.26    14.933304 
15195500    1971.4466   -644.69116     310740.5    15.001512 
15196000    2124.2757   -644.70007    299149.26    14.878321 
15196500    2217.3121   -683.44904    302291.39    15.111027 
15197000    1948.2846   -723.79251    299725.53    15.503596 
15197500    2015.3904   -721.82873    300325.79    15.450565 
15198000    1993.2811    -625.5074    304480.31    14.664726 
15198500     1967.564   -631.13816    301514.88    14.625472 
15199000    1932.5823   -635.70367    301196.66    14.695994 
15199500    2027.9504   -713.11871    290933.39     15.40875 
15200000    1993.8135   -661.15325    302667.63    15.033464 
15200500    2049.1718   -656.12654    299065.26    14.899749 
15201000    2061.3792   -650.85377    294173.49      14.7602 
15201500    1946.7196   -649.43489    296556.72    14.786685 
15202000    1966.7868   -645.38186    297866.29    14.811064 
15202500    1995.0171   -662.11351    300342.27    15.044666 
15203000    2115.9836   -710.94761    294679.41    15.436989 
15203500    1957.7953   -643.92423    296909.17    14.977725 
15204000    2027.7722   -661.26497    298653.31    15.032704 
15204500    2013.3744   -631.51941    303764.78    14.957189 
15205000    2128.5002   -728.61699    298954.17    15.588871 
15205500     2126.718   -712.49588    301148.95    15.434856 
15206000    1919.2499   -653.90929    295230.92    15.150051 
15206500    2034.2418   -708.89541    288703.16    15.496719 
15207000    2069.3122   -617.53284     309686.6     14.67648 
15207500    1900.9521   -692.11157    297188.25    15.206432 
15208000    2004.2162   -728.18424    302880.17    15.477163 
15208500    2189.2294   -747.95427    310016.27    15.686507 
15209000    1990.0303   -757.51839    304247.94    15.555867 
15209500    2023.6489   -702.00419    308142.57    14.951946 
15210000    1894.6645   -726.01067    294957.96    15.187016 
15210500    1755.7618    -699.3343    301867.29    15.294693 
15211000    1824.4337   -713.25714    284685.63    15.314411 
15211500    1998.2798   -753.68428    308372.61    15.451548 
15212000    1878.2007   -741.73127    274904.47    15.353433 
15212500    1887.0382   -739.72071    296479.36    15.370447 
15213000     2047.077   -763.81186    287664.91    15.661068 
15213500    2096.1913    -760.5608    300422.99    15.502934 
15214000    1850.7841   -727.79489    305123.35     15.18754 
15214500    1788.9149   -756.21602    291400.48    15.529986 
15215000    1837.6786   -748.70811    293711.33    15.419262 
15215500    1768.3932    -737.6749    295941.41    15.316578 
15216000    1982.6693   -669.69301    288918.73    14.879419 
15216500    2058.7997   -639.18715    301338.42     14.71962 
15217000    2088.4409   -752.34469    272055.71    15.430631 
15217500    2035.6234   -716.20636    308833.13    15.240297 
15218000    2055.2476   -734.72545    290113.95    15.384533 
15218500    2210.2123   -743.70286     297388.6    15.386725 
15219000    1915.5958   -698.71249    306802.76    15.041913 
15219500    2183.0874   -727.53568    305729.22    15.250123 
15220000    1979.3371   -746.81562    300470.94    15.498975 
15220500    1961.9433   -671.81716       306877    14.724401 
15221000    1959.2132   -719.72871    304841.97    15.098119 
15221500    1923.0381   -712.31567    297591.35    15.010881 
15222000    2027.8091   -683.87158    294456.82    14.779603 
15222500    2036.5527   -637.58073    297632.33    14.414484 
15223000    2041.7285   -670.16616    295570.07     14.66014 
15223500     1979.553   -663.10771    299388.35     14.57789 
15224000    1953.2338   -668.58909    303508.33    14.662134 
15224500     1822.854   -699.51999    288040.93    14.748042 
15225000    1901.7729   -694.62928    294856.82     14.78819 
15225500    1992.9845   -707.85086    308523.91    14.785616 
15226000    1978.7225   -652.14733    300352.91    14.506813 
15226500    1996.3461   -667.31793    305800.12    14.625435 
15227000    1942.1988   -744.51018    288079.37    15.246669 
15227500    1974.7396   -644.10032    296490.74    14.486313 
15228000    1840.9214   -696.78892    297716.84    14.795702 
15228500    2069.4407   -724.41581     300161.6    14.963067 
15229000    1975.6053   -664.43333    298433.52    14.627422 
15229500    2087.6688   -671.12079    292883.24    14.668928 
15230000    1918.2852   -661.13861    304178.69    14.556189 
15230500    1876.8092   -642.21581    304444.78    14.485994 
15231000    1911.8536   -708.06004    298847.71    14.889129 
15231500    1956.7686   -704.93994     278888.7     14.83118 
15232000     2020.104   -709.02751    305213.34    14.799622 
15232500    1902.4213    -711.7411    295999.31    14.897026 
15233000    2186.8027   -660.39021    292429.44    14.636228 
15233500    1996.4626   -693.91799    304286.83    14.843927 
15234000    1858.7588   -657.69514    303338.77    14.600685 
15234500    2122.6726   -721.14825    299567.43    14.915084 
15235000    2024.2025   -714.38005    308554.21    14.884849 
15235500    2033.1486   -699.89621    298214.61    14.745825 
15236000    2102.4122   -719.26111    291996.07    14.948925 
15236500    1907.5425   -696.14804     297224.2    14.687931 
15237000    2074.8627   -666.69914    299551.63    14.660888 
15237500    1954.7557   -657.10657    276185.12    14.713834 
15238000    2072.9305   -653.49643    296207.77    14.744094 
15238500    2199.5814    -599.1506    296018.46    14.607522 
15239000    2149.5704   -587.88371    298902.81    14.567196 
15239500    1865.5464   -588.71446    298307.01    14.556403 
15240000    2037.5432   -596.35036     294488.3     14.48287 
15240500    1912.0011   -640.69413    302203.47    14.650198 
15241000    1995.1344    -751.2571    301759.23    15.516396 
15241500    1916.0958    -754.9897    296968.13    15.646741 
15242000    1832.7865   -758.01035    281208.95    15.644174 
15242500    1868.1997   -701.43255    305421.47    14.986889 
15243000    1785.2044   -753.58048    295693.19    15.606026 
15243500    1854.4687   -759.29401    290554.78    15.670012 
15244000    1980.3916   -718.51078    303736.99    15.236935 
15244500     1935.508   -764.64278    276032.75     15.65226 
15245000    1952.2649   -717.34783    298985.96     15.23322 
15245500    2066.3049   -736.76361     306661.2    15.386719 
15246000    1924.6705   -751.45295    297204.26    15.709469 
15246500    1973.7439   -748.75627    302599.77    15.610778 
15247000    1840.3899   -742.02884    299909.28    15.556101 
15247500    2039.5525   -712.11897    303616.83    15.156706 
15248000    1974.5403   -709.17363     287755.8     15.33947 
15248500    1951.9491   -697.64504    300063.35    15.133841 
15249000    1974.3692   -681.60139    301051.97    15.053367 
15249500    1969.3682   -665.63389    298058.23    14.938567 
15250000     2144.933   -624.99688    293259.54    14.468609 
15250500    2010.4299   -629.24392    301281.61    14.406851 
15251000    1834.2391   -690.11463    297386.35    14.875723 
15251500     1909.941   -732.37842    299585.85    15.321933 
15252000    1961.5117   -749.66233    300642.41    15.332894 
15252500     1901.413   -737.98124     307449.2    15.360418 
15253000    2142.1976   -748.06976    310186.59    15.357203 
15253500    1860.2412   -716.58435    304185.89    15.052497 
15254000    1898.8526   -754.76895    296023.66    15.515596 
15254500    1891.5671   -748.63444    303793.77    15.638235 
15255000    2023.6628   -755.69113    300325.47    15.706114 
15255500    1918.9364   -734.66673    281428.39    15.360948 
15256000    1862.9102   -715.59776    298264.32    15.066356 
15256500    1877.9652   -666.24913    293457.49    14.768376 
15257000    1873.3528   -654.61497    302342.94    14.770698 
15257500    1937.3496   -641.95505    309828.18    14.627905 
15258000    2161.6975   -669.33663    300573.45    14.738858 
15258500    1831.0916   -705.06832    299458.32     15.03455 
15259000    2016.2482   -720.72519    302335.53     15.17969 
15259500    1995.6079   -658.09418    296132.58    14.703992 
15260000     2043.379   -658.69672    297266.23    14.713686 
15260500    1976.2503   -697.92063    297433.09    14.945821 
15261000    2052.5394    -719.6111    299742.04    15.151867 
15261500    1980.5523   -732.14488    298097.47     15.23509 
15262000    2115.4352   -645.40584     313869.3    14.607039 
15262500     2114.556   -639.31499    295010.34     14.69546 
15263000    1914.1853   -632.50169    294565.81    14.765246 
15263500    2046.4643   -631.25062     305599.2    14.749088 
15264000     2042.659   -629.07074    298147.86    14.668725 
15264500     2017.241   -637.24303       290064    14.753956 
15265000    2182.5914   -665.68296    301756.65    14.883949 
15265500    2055.5878   -595.04485    300949.46    14.588861 
15266000    2089.6076    -581.1711    305826.38       14.518 
15266500      2025.75   -582.37418    302778.21    14.511946 
15267000    1987.4347   -719.60797    294867.07    15.569059 
15267500    2061.1708   -695.61559    296702.78    15.302768 
15268000    2037.0672   -713.80678    306857.48    15.285931 
15268500     1947.939   -724.63472    300438.68     15.41496 
15269000    2123.2242   -725.07201    298722.55    15.309517 
15269500    2125.3392   -740.82422    307705.28    15.295497 
15270000    2036.2364   -729.15073    294237.43    15.261311 
15270500    2117.0644   -732.34307    303556.09    15.302123 
15271000    2098.0908   -737.86989    302409.64     15.33977 
15271500    2001.0007   -750.69411    279236.55    15.449566 
15272000    2210.5233   -760.93957    311831.91     15.53432 
15272500     1913.233    -735.4608    302360.14    15.363832 
15273000    2109.2431   -619.41629    307600.72    14.634811 
15273500    1972.9251   -715.13833    292230.86    15.423634 
15274000     1931.416   -707.93842    297072.83    15.357145 
15274500    2007.4855   -715.39366    299449.95    15.447957 
15275000    1928.4723   -702.14399    304896.46    15.335646 
15275500    2001.1358   -688.11957    299997.78    15.290309 
15276000    2073.1967   -726.96792    298317.21    15.457084 
15276500    1991.3175   -691.57753    310131.99    15.183362 
15277000    2072.9862   -732.78048    296409.27    15.642311 
15277500    1964.8428   -750.56455    300953.41    15.704675 
15278000    2032.8343   -675.93979    304299.61    14.922206 
15278500    1931.4672   -649.44728    296072.22    14.821477 
15279000    1830.2783   -622.04994    299960.81    14.693744 
15279500    1965.5431   -629.15305    309493.18     14.79035 
15280000    1957.0552   -605.30133    297846.31    14.586495 
15280500    1952.7133   -633.11024    307438.52    14.792648 
15281000    2028.9956   -611.19531    301672.97    14.645984 
15281500    2224.9496   -596.56614    293404.05    14.653834 
15282000      2121.73   -684.78638    302429.88    15.310495 
15282500    1981.7184   -638.75216    304393.47      14.9396 
15283000    1921.4511   -640.33065    303484.68    14.972816 
15283500    1930.5232   -655.71124    296952.56    15.188621 
15284000    1954.6711     -665.175    297358.27    15.131751 
15284500    2216.4846   -667.92168    299486.74    15.301639 
15285000    1857.2049   -651.47123    299302.79    15.092974 
15285500    2052.6572   -721.57111    303179.34    15.528845 
15286000    1956.4347   -716.24709     302408.9      15.3948 
15286500    1923.9985   -696.50355    301935.91    15.193623 
15287000    1830.0787   -687.37916    303224.51    15.126513 
15287500    1829.8301   -759.46568    296049.59    15.751721 
15288000    1987.7778   -732.14855     300751.9    15.566264 
15288500    2149.7937   -724.03116    301559.99    15.478124 
15289000    1956.8042   -739.49628    300807.93    15.569257 
15289500    1956.8795   -764.44328    289822.29    15.730609 
15290000    1933.0503   -737.91024     297292.3    15.475783 
15290500     1982.166   -724.93044    300739.39    15.274558 
15291000    1921.4274   -753.02664     306640.6    15.641075 
15291500    1957.6606   -723.09034    302450.65     15.48743 
15292000     2315.292   -737.81254    301020.55     15.55441 
15292500     1993.886   -696.12436    297687.67    15.345764 
15293000    1851.7538   -697.21283    295703.48    15.416846 
15293500    2006.7173   -693.13822    302808.77     15.31718 
15294000    1864.8426   -699.93437    302770.48    15.346816 
15294500    1844.8446   -745.21912    301015.92    15.846896 
15295000    1928.9263   -709.12525    300243.17    15.431849 
15295500    1980.7447   -567.92558    305243.97    14.503688 
15296000    2040.7268   -626.27537    305046.68    14.689332 
15296500    1851.4437   -612.36023    303979.63    14.659776 
15297000    2009.1288   -629.69204    302473.22    14.683734 
15297500    1934.6765   -669.98806    303684.43    14.883586 
15298000     2072.502   -745.32613    301124.86    15.388375 
15298500     1795.706   -646.50458    296791.75    14.756904 
15299000    1817.4872   -749.05594    298039.13    15.494182 
15299500    2084.8623   -750.07945    299295.77    15.471478 
15300000    2114.4764   -739.62252    299937.23    15.531148 
15300500    2085.0255   -744.21031    304292.82    15.508527 
15301000    2111.8365   -718.65757    300931.49    15.305555 
15301500    2145.1738   -674.85112     303681.4    14.907611 
15302000    2065.0593   -723.01728    298303.64    15.190861 
15302500    2033.0272   -711.65299    300341.83    15.114764 
15303000    1968.0805   -700.72976    298357.72    15.091812 
15303500    2060.6326    -718.4453    295659.18    15.192138 
15304000    1966.8296   -710.62575     300131.7    15.097153 
15304500    2046.2805   -735.37762    304787.99    15.358538 
15305000    1741.4098   -701.80962    299523.78    15.063869 
15305500    1849.6188   -747.01088    298797.61    15.514602 
15306000    2069.9423   -725.68544    298332.18    15.303131 
15306500     2208.692   -674.76685    302261.52    14.988472 
15307000    1926.2277   -649.96042    297524.99    14.818665 
15307500    2072.5749   -717.61606    297209.56    15.256826 
15308000    1967.2203   -648.92665    302444.28    14.853797 
15308500    2151.1003   -620.99482    304962.25    14.741583 
15309000    2093.6077    -725.9207    293828.96    15.415781 
15309500    2063.7208   -757.78573    300641.07    15.755844 
15310000    2035.3441   -741.58227    299313.32    15.551599 
15310500    2145.4774   -748.29924    298758.63     15.57026 
15311000      1961.69   -750.85131    300752.13    15.627754 
15311500    1963.7015   -737.46657    297947.75    15.527549 
15312000     2104.414   -666.67041    293450.75    14.837845 
15312500    2084.8901   -634.12928    317809.08    14.637193 
15313000    1997.1713   -639.85902    310495.99    14.676178 
15313500     1854.641   -645.30909    294120.96    14.779879 
15314000    1966.8992   -628.62264    308392.01    14.669671 
15314500    1916.1403   -717.48653    297978.98    15.250522 
15315000    1856.0345   -687.94306    297346.78    15.103717 
15315500    2031.1223   -704.22408    312359.42    15.091572 
15316000    1866.4272    -714.5047    294843.03    15.216458 
15316500    1975.4257    -649.6621    309534.14    14.772655 
15317000    1763.9245   -581.65745     293105.3    14.554824 
15317500    1904.6914   -716.65455    302007.07    15.434796 
15318000    1846.9743   -746.82175    302768.68    15.774169 
15318500    2009.9696   -749.41502    300847.15    15.832253 
15319000     2077.685   -704.39391    302217.17    15.599783 
15319500    2044.3139   -699.57298    298890.85    15.647836 
15320000    2104.4208   -657.75892    298651.85    15.189218 
15320500    2062.8831   -673.68443    298459.37    15.194201 
15321000    2158.1549   -676.48827    303671.95    15.128117 
15321500    2056.2437   -717.13035    298023.24    15.451905 
15322000    2199.8683   -633.84164    297360.79    14.814692 
15322500    2045.5197    -676.0022    302205.35    15.290187 
15323000    2141.6775   -682.67588    298160.48     15.19541 
15323500     2142.518   -646.80525    300723.66    15.144056 
15324000    2020.2973   -644.89674    309363.83     15.05802 
15324500    1912.6332    -695.8841    295639.12     15.32787 
15325000    2100.7792   -695.54936    302127.22     15.37045 
15325500    2138.2691   -666.61712    295302.53    15.110211 
15326000    2021.8361   -679.98053    297533.68    15.130953 
15326500    1888.4383   -706.99237    303908.02    15.322246 
15327000    2201.5566   -690.61305    299809.32    15.323928 
15327500     2028.444   -721.64216    292087.85    15.667728 
15328000    1940.8446   -641.15002    299431.89    15.030247 
15328500    1968.0835   -686.33769    297670.31    15.403983 
15329000    1891.4728   -642.85829    298743.29    15.138044 
15329500    1981.4867   -712.68236    300691.36    15.493233 
15330000    1918.5525   -712.29563    301641.31    15.444238 
15330500    2102.2079   -681.32113    301429.42    15.101697 
15331000    2177.3307   -699.04716    295691.01    15.246621 
15331500    2202.9498    -674.3949    302884.74    15.173373 
15332000      1897.31   -747.90567    293959.83    15.887091 
15332500    1954.7983   -752.66581    298952.63    15.747176 
15333000    1805.3121   -681.29698    297672.77    15.018177 
15333500    1918.0395   -715.67323    296133.01    15.260523 
15334000    2097.3458   -753.96916    300038.89    15.531347 
15334500     2014.931   -743.80842    299227.19    15.627449 
15335000     2145.783   -727.13013    303340.26    15.532249 
15335500    1984.7516   -753.11941    296887.79     15.78167 
15336000    2028.7605   -683.44219    307550.64    14.992654 
15336500    1892.1549   -684.39061     304384.7    15.031834 
15337000    2059.0358    -735.1209    299782.46    15.461399 
15337500    1922.5301    -714.0703    298216.44    15.239587 
15338000    2166.0192   -701.76792    306366.23    15.108929 
15338500    1803.4788   -755.38826    294758.76      15.6632 
15339000    2077.2144    -736.8983    307458.11    15.413926 
15339500    2096.6555   -715.79525    298044.25    15.311943 
15340000    1910.4933   -586.12591    307503.95     14.60901 
15340500    2121.1842   -668.71176    304717.65    15.123752 
15341000    2106.0288   -697.40965    300506.04    15.535033 
15341500    1997.6066   -684.79826     300659.6    15.498753 
15342000    1933.9396   -696.94178    294791.73    15.623604 
15342500    2101.1569   -708.85318    297833.44      15.6922 
15343000    2062.8961   -708.53551     300605.2    15.655988 
15343500    1997.5766    -696.2849    303138.63    15.596081 
15344000    2008.1898   -707.81471    300577.78    15.648305 
15344500    1966.0491   -640.65683    296807.32    14.953226 
15345000    2132.7356   -613.58892    298041.21     14.68081 
15345500    2082.2536   -590.33688    289015.09     14.58127 
15346000    2016.6138    -589.5098    305828.39    14.459918 
15346500    2056.2995    -660.9334     293611.1    14.789144 
15347000    2018.4529   -656.04628     304605.1    14.692428 
15347500    2021.9984   -651.21017    310282.62    14.621135 
15348000    1921.6669   -643.25234    301216.86     14.66173 
15348500    1896.4271   -722.31436    298814.75    15.167745 
15349000    2175.8916   -714.90424    300068.62    15.054163 
15349500    1872.4263   -689.51106     301596.4     14.84876 
15350000    2029.7249   -697.23037    302122.83    14.895102 
15350500    2093.3541   -709.32432     303437.3    15.026386 
15351000    2023.5892   -673.04752    296236.87    14.786096 
15351500     1941.795   -712.36497       301140    15.116304 
15352000    2027.5329   -761.80297    304381.06    15.580608 
15352500    2073.4675   -755.71202    298636.06    15.575333 
15353000    1924.9977   -721.55427     299741.3    15.144465 
15353500    1964.0926   -732.23601    304521.26    15.249024 
15354000    2091.0767   -756.07142    287547.07    15.456602 
15354500    2085.1615   -755.42429    294207.05     15.37715 
15355000    2004.9083   -737.15763    294922.65    15.089362 
15355500    2068.3264   -718.96624    303270.47    14.905839 
15356000    2093.0617    -691.4842    291231.67     14.70427 
15356500     1932.371   -649.06231    293475.27    14.477963 
15357000     2059.964    -633.2917     289837.3     14.44441 
15357500    1820.7092   -637.96329    292052.86    14.461122 
15358000    2023.6117   -624.94877    306271.84    14.368961 
15358500    2116.1948   -622.79743    298399.73    14.436397 
15359000    1836.4686     -598.016    298496.81    14.386131 
15359500    2034.3228   -578.24426    286678.65    14.286911 
15360000    1877.2683   -587.14499    286944.34    14.301147 
15360500    1840.2878   -678.44744    299588.41    14.982982 
15361000     2221.318   -726.32953    298748.51    15.203048 
15361500    1911.2568   -703.64988    296353.54    15.248054 
15362000    2007.8824   -688.07334    304010.16    15.196952 
15362500    2094.3451   -642.90749    298908.95    14.869325 
15363000    1970.7661    -593.9991    291439.68    14.652314 
15363500    2035.8623   -629.43146    296598.75    14.749737 
15364000    2016.4201   -671.16638    298366.82    15.013583 
15364500    1914.8489    -657.7122    299887.13     15.00656 
15365000    2025.2462   -682.87794    297428.67    15.198611 
15365500    1839.6585   -703.58475    290958.01    15.371743 
15366000    1951.7939   -729.11708    300402.21    15.248648 
15366500    1991.4822   -649.53198    297789.51    14.721592 
15367000     1902.112   -652.96812    292644.54    14.754155 
15367500     2014.082   -639.42783    299141.55    14.903687 
15368000    2278.9519    -710.7607    303636.18    15.201608 
15368500     2013.977   -728.95013    307010.51     15.37009 
15369000    1947.0964   -698.28636    299611.15    15.141074 
15369500     1946.035   -702.09032    302760.04     15.11426 
15370000    1915.3398   -669.56685    296005.25     14.99364 
15370500    1959.2336   -661.10386    302495.14    14.871929 
15371000    1846.5343    -755.7054    277722.62     15.59506 
15371500     2076.554   -738.50858    300289.58    15.365402 
15372000    1906.0878   -754.42428    297311.56    15.530471 
15372500    1958.2418   -699.60959     295412.5    15.107499 
15373000    1982.6583   -583.43409    296732.35     14.40037 
15373500    2007.6522   -580.30302    307202.64    14.372974 
15374000    2129.2824   -657.82372    300215.12    14.708626 
15374500     1987.348   -650.51018    299489.23    14.709713 
15375000    1993.9816   -650.30507    305248.69    14.661785 
15375500    2055.8943   -654.98245    300699.14    14.692305 
15376000    1935.2801    -751.8988    275089.67     15.43597 
15376500    2116.0843   -755.80236    276413.37     15.42907 
15377000    2068.9132   -728.52073    295778.96    15.205899 
15377500    2124.7863   -734.36946    310290.13    15.285741 
15378000    2015.2029   -709.86054    305208.94    15.221927 
15378500    2074.7227   -651.89207    302683.13    14.888363 
15379000      1996.43   -646.69408    304554.29    14.806193 
15379500    1938.0954   -716.56116    298428.69    15.211862 
15380000    2167.5044   -670.27497    295849.97    14.868513 
15380500     1953.935   -635.87633    302376.55    14.592675 
15381000    2186.5192   -667.04303     298259.2    14.885865 
15381500    2070.8765   -666.73495    299701.45     14.90525 
15382000    2027.2289   -636.03045    303688.98    14.738233 
15382500    1937.3205   -710.55357    295084.58    15.271733 
15383000    2045.8129   -743.15993    309910.96    15.332964 
15383500    1994.1633   -757.68411    277062.61    15.471415 
15384000    2023.6807    -747.6933    304764.38    15.301527 
15384500    2070.6661   -719.18707    306878.55    15.151312 
15385000    1940.9873   -739.89364    291477.95    15.350325 
15385500    2031.0121   -712.04365    306481.18     15.04783 
15386000    1946.0745   -746.63115    307138.84    15.202922 
15386500    2186.7923    -758.1977    276178.26    15.475474 
15387000    1927.4081     -654.556    301027.96    14.680075 
15387500    1999.7153   -652.38322    301220.34    14.688536 
15388000    2018.9578   -642.83724    298142.38    14.745861 
15388500    1835.2276   -660.63796     297776.8    14.920768 
15389000    2135.4608   -726.49771    306561.07    15.373631 
15389500    1987.9113   -751.77999    303016.67     15.54847 
15390000    2073.6579   -710.68122    303120.16    15.034898 
15390500    1892.1094   -739.59841    300237.15    15.404909 
15391000     1754.612   -729.83117     300032.6    15.485801 
15391500    1921.4088   -746.59576    297013.21    15.498605 
15392000    2007.3944   -689.26624    305848.12    14.946503 
15392500     1894.528   -659.70411    291602.93    14.778598 
15393000    1983.8522   -627.41605     305520.6    14.612245 
15393500    1853.0256   -615.38639    298368.15    14.744637 
15394000    1916.1297   -572.81254    318631.64    14.431379 
15394500    1992.1087   -581.37139    291774.16    14.476815 
15395000    1960.0768   -580.42655    318419.34    14.390033 
15395500     1984.502   -674.37258    297911.16    14.975081 
15396000    2150.9984   -619.60387    298974.33    14.477993 
15396500    1980.8492   -698.05474    284965.79    15.192064 
15397000    1874.3893   -702.29057    305862.63     15.36072 
15397500    2136.8296   -712.46835    305167.89     15.38576 
15398000    2261.4522   -719.55495       300873    15.384731 
15398500    1996.7026   -700.52502    307104.03    15.332058 
15399000    2158.7921   -694.98399    298754.49     15.26309 
15399500    1928.1478   -629.27247    300674.78    14.795939 
15400000    1974.3438   -677.16541    297277.02    15.213311 
15400500    1981.7626   -712.78668    306348.15     15.31546 
15401000    2088.8292   -644.49865    302151.65    14.888003 
15401500    1903.3386   -681.95704    297364.44    15.128488 
15402000    2085.4304   -675.35036    302185.89    15.003928 
15402500    1985.9715   -698.74558    302601.13    15.196403 
15403000    1805.0352   -680.47037    296657.59     14.98016 
15403500    1867.5469   -652.94587    297596.87    14.805087 
15404000    1830.7897   -672.92506    294520.35    15.043513 
15404500    1941.9438   -667.17131    294501.77    14.894038 
15405000    1925.3379    -696.5378    294769.15    15.208943 
15405500    2193.2333   -645.45176    305553.36    14.610198 
15406000    2138.8377   -657.28174    299234.03    14.902493 
15406500    2032.3617   -750.39129    298612.22    15.449959 
15407000    1945.6436   -738.35225    305469.95    15.317056 
15407500    1938.0649   -736.83014    299648.67    15.309722 
15408000    1926.4188   -725.36244    300403.94    15.237299 
15408500    2130.9229   -748.48567    291058.52    15.474943 
15409000    1984.4854   -696.89007    304038.96    14.962599 
15409500    2197.6774   -728.03778    301890.65    15.235259 
15410000    1995.2723   -719.42806    296267.55    15.095649 
15410500    2160.2571   -727.20053     299884.8    15.047755 
15411000    1918.0178   -729.97798    291158.66    15.027791 
15411500    2026.3672   -653.20585    290891.58    14.415527 
15412000    2015.5527   -716.29826     298771.9    14.968659 
15412500     2014.615   -709.05314    308915.67    15.010294 
15413000    1889.2592   -738.51966    304229.48    15.402138 
15413500    2130.5103   -755.36615    304451.06    15.429932 
15414000    1884.5652   -750.73251    299761.29    15.389065 
15414500    2064.9491   -719.67933    293072.86    15.141787 
15415000    1973.9866   -685.50379    297654.66    15.068529 
15415500    1959.4012   -722.91182     297637.9     15.49987 
15416000    1985.3509    -678.5119    294762.82     15.05275 
15416500     1915.613   -707.78056    304013.65     15.14741 
15417000     1960.802   -749.45423    305969.13    15.373808 
15417500    1990.6784   -737.05574    302421.35    15.348033 
15418000    2248.8426   -744.62444    304311.33    15.491995 
15418500    1993.0881     -733.428    301464.24     15.44344 
15419000    1897.0052   -720.67595    301951.94    15.361951 
15419500    1996.7074   -744.50944    305388.47    15.539568 
15420000    2097.4786   -723.01788    305794.83    15.312231 
15420500    1979.3992   -737.51074    304048.52    15.533778 
15421000    1996.2513   -703.90993    302004.17    15.351607 
15421500    1862.1522   -687.93888    302581.82     15.25421 
15422000    2090.8438    -707.7712    301739.23    15.430639 
15422500    1943.6863    -659.5964    300289.13    15.043811 
15423000     1853.868   -662.21983    296171.42    15.166688 
15423500    1942.7895   -673.31196    301600.53    15.254661 
15424000    1971.9177    -616.1712     303573.3    14.987368 
15424500    1844.9222   -690.78121    299772.22    15.542664 
15425000    2079.4646   -682.59169    306153.25    15.207532 
15425500    1736.9638   -628.04929    302598.88     14.93829 
15426000    1991.6279   -638.03781    294104.87    15.129925 
15426500    2086.0546   -671.56849    295981.32    15.319808 
15427000    1968.4346   -700.24568    297983.28     15.48519 
15427500    2061.8168   -687.17342    294772.81    15.453727 
15428000    2108.0473   -643.75401    305211.91    14.980516 
15428500    1836.1563   -699.51553    302748.99    15.364553 
15429000     2018.391   -725.91383    300191.25    15.500158 
15429500    1955.1118   -694.71305    304576.12    15.335713 
15430000    2174.3931   -700.68401     297828.1    15.378868 
15430500    2091.6842   -658.52432    292918.66    14.999223 
15431000    2047.1812   -639.14299    300805.79     15.06031 
15431500     2003.554   -716.81113    301309.54    15.565884 
15432000    2130.5197   -629.41526    309362.07    14.871517 
15432500    2044.0014   -706.42795    298336.54    15.458507 
15433000    1990.9328   -682.24626    302491.28    15.290138 
15433500    2011.8372   -644.06638    304570.22    15.075636 
15434000    2023.0189   -699.24996    305866.77    15.393597 
15434500    2012.4085   -662.99521    300210.29    15.175791 
15435000     1849.743   -707.50059    294311.96    15.565847 
15435500    2024.9174   -646.70452     304097.6    14.963019 
15436000    2023.0734   -668.03691    300344.14    15.264283 
15436500    1973.2882   -659.81269    296702.19    15.228444 
15437000    2201.3111   -663.41736    304141.47    15.242685 
15437500    1866.8693   -631.68682    301911.87    15.170955 
15438000    2085.4176   -651.96051    295831.88    15.262807 
15438500    1997.5463   -659.21815    299144.03    15.200882 
15439000    1917.2027   -704.12011    300219.25    15.600547 
15439500     1994.376   -716.04977    298517.52    15.671624 
15440000    2065.5541   -686.30338    293311.88    15.375967 
15440500    2001.7867   -652.72124    299002.88    15.209235 
15441000     1841.769   -704.79856    299655.88    15.668962 
15441500    2092.9494   -696.49647     305865.9    15.591966 
15442000     1992.199   -688.73109       302743    15.544336 
15442500    2009.3078   -725.95661    300338.57    15.942142 
15443000    2016.4339   -684.24184    302186.78     15.44171 
15443500    2038.1385   -728.97111     302820.3    15.812244 
15444000    2054.8638   -631.34525    302833.06    14.786985 
15444500    1918.1129   -624.89509    297275.03     14.81435 
15445000    2066.2921    -627.7585    315109.98    14.663495 
15445500    2023.1116   -729.14305    303021.68    15.372236 
15446000    2076.9275   -753.40861    297543.36    15.574501 
15446500    2129.9627   -761.15079     291643.7    15.617504 
15447000    2010.0154   -662.19174    296925.24    14.926186 
15447500    1968.7007   -646.87054    305592.49    14.759586 
15448000     2053.122   -653.21161    300151.39    14.778287 
15448500    1812.0799    -647.8739    294347.91    14.836477 
15449000    1794.5249   -644.67178    302736.34    14.768167 
15449500    2044.2079   -674.32105    306383.37    15.000405 
15450000    2056.7363   -756.12129    302093.88    15.704879 
15450500    2002.5683   -708.85445    296823.98    15.205458 
15451000    1933.0751   -701.30875    292522.08    15.197082 
15451500    2032.0563   -701.64811    303261.87    15.113849 
15452000     2001.094   -694.18172    307494.63    15.020315 
15452500    1988.2663   -649.18889    291963.12    14.785971 
15453000    2094.7977   -654.13241     297781.7      14.7906 
15453500    2048.0556   -650.69406    300537.03    14.765649 
15454000    2003.0126   -705.22145    300755.17    15.095342 
15454500    2092.2725    -678.0229       304591    15.064116 
15455000    1916.2446    -757.6093    288787.83    15.827926 
15455500    1955.0004   -690.70495    301988.15    15.071551 
15456000    2045.7385   -708.29612    302472.19    15.224517 
15456500    2060.0263   -708.27507    296856.89    15.234022 
15457000    1848.9292   -689.44391    296204.59    15.123861 
15457500    2086.0496   -700.25094    294009.11    15.219858 
15458000    1975.8873   -615.06686    310182.07    14.702152 
15458500    1936.0119   -664.82934    305043.32    15.086948 
15459000    2063.5015   -682.31198    311894.81    15.053954 
15459500    1973.9085   -694.25491    299896.79    15.085968 
15460000    2079.2888   -736.51234     306324.6    15.362506 
15460500    1874.2694   -723.58204    303020.48    15.263621 
15461000    1866.7813   -684.36418    304719.48    15.012346 
15461500    1986.8165    -692.2862    296214.26     15.19623 
15462000    1894.3902   -597.58857    299736.71    14.587694 
15462500    1772.0969   -667.62643    291192.54    14.895284 
15463000    1985.2486   -652.51212    303048.33    14.737895 
15463500     1944.585   -646.20429    268939.41    14.820472 
15464000    1798.3713   -641.71253    306504.14    14.733626 
15464500    1990.9765   -645.52317    292765.85    14.836785 
15465000    1946.4294   -614.71319    297239.46    14.771786 
15465500    2020.7623    -673.3754    300603.96    15.187241 
15466000    2346.2614   -684.62304    306787.26    15.204364 
15466500    2187.0094   -621.31531    305771.06    14.856754 
15467000    2091.7574    -609.8609    303603.34    14.911637 
15467500    1942.0053   -654.50907    300200.48    15.261354 
15468000    2069.4922   -709.16772    302431.05    15.750563 
15468500    2037.7791   -632.63754    302143.84    15.072902 
15469000     1992.851   -655.11244    299271.17    15.288379 
15469500    2038.6384   -622.98777    305699.54    15.108955 
15470000     1888.119   -676.08827    295866.83    15.402931 
15470500    2189.2329   -706.29094    305562.63    15.570406 
15471000    2048.0605   -629.60357    305858.77    15.062671 
15471500    1985.5675   -710.28595    293605.32    15.681101 
15472000    1986.2773   -628.11912    307698.66    15.011275 
15472500    2092.1309   -704.35939     300064.4    15.519445 
15473000    2138.7523   -692.35063    296784.82    15.462843 
15473500    2031.2193   -695.87764    302406.81    15.352456 
15474000    2005.0073   -711.05003    307955.08    15.475992 
15474500    1890.2475   -713.22769    302863.37    15.417171 
15475000     2049.747   -758.28012    291713.31     15.76363 
15475500     2066.982   -695.44336    302822.86    15.213645 
15476000    1768.6501   -707.23956    299712.26    15.346275 
15476500    2007.9549   -684.27442    300547.36    15.225944 
15477000    2110.2151   -719.93611    297699.17    15.405248 
15477500    1898.2695   -709.85562    300508.12    15.440782 
15478000    1988.8901   -753.64173    299489.29    15.729897 
15478500    1978.7829   -748.43411    296394.78    15.593011 
15479000    2032.3659   -742.86026    296809.53    15.619981 
15479500    1924.3362   -672.50222    305008.69    15.108244 
15480000    2060.4595   -672.54043    304113.01    15.256981 
15480500     2202.166   -643.86687    300975.44    15.103807 
15481000    2091.5522   -678.80946    300885.72    15.297859 
15481500    1975.1588   -689.79195    303108.38    15.330414 
15482000    2152.4543   -719.40575    303166.34    15.464182 
15482500     1738.181   -711.13591       301270     15.51148 
15483000    1835.2091    -722.4832    295118.84    15.760149 
15483500    1853.8358   -647.47637    297896.22    15.233182 
15484000    2069.5985   -692.37255    299701.53    15.482754 
15484500    1875.8863   -729.90915    299924.66    15.924265 
15485000    2052.8889   -735.09834       293384     15.93589 
15485500    1831.0533   -662.17313    298921.58     15.25575 
15486000     1922.661   -643.53447    303883.17    15.188374 
15486500    2105.8852   -635.44484    304447.84     15.15821 
15487000    2171.0121    -641.2493       299658    15.293275 
15487500    1948.3429   -636.65088    297372.84    15.188468 
15488000    1992.1515   -650.49948    298283.57    15.116911 
15488500    1977.6149   -587.77482    297918.01    14.698213 
15489000      2069.55   -615.76977    302044.43    14.777317 
15489500     2057.975   -653.21284     297885.2    14.852387 
15490000    1992.7143   -681.62689    304757.48      14.9719 
15490500     2203.498    -758.0669     299849.4    15.625571 
15491000    2066.7413   -732.05996    304298.47    15.353541 
15491500    2059.1034   -750.62546    301821.03    15.643435 
15492000    2002.4902   -755.03558    301024.73    15.684972 
15492500    1828.7484   -689.51552    293887.98    15.031044 
15493000    2013.3409   -576.52083    300803.07    14.532381 
15493500     1866.199   -656.77246    293812.78    14.862437 
15494000    2177.8368   -672.93458    301230.58    14.906825 
15494500    2024.5942   -755.05401     303414.4    15.596295 
15495000    1993.6134   -649.24494    302091.23    14.847102 
15495500    1931.2166   -616.48823    307224.18    14.744457 
15496000    1909.3337   -700.96088    295944.78    15.418298 
15496500     1994.836   -636.34838    305659.41    15.052372 
15497000    2045.4319   -706.30503    303232.82    15.407445 
15497500    2100.9024   -644.33379     309009.3    15.036167 
15498000    1928.1815   -694.13891    300416.46    15.312812 
15498500    2005.1323   -719.12605    296498.29    15.345109 
15499000    2138.4251   -736.59298    305827.81    15.287186 
15499500    2155.4203   -727.74421    301549.65    15.304574 
15500000    1991.9005   -705.81793    303348.82    15.155453 
15500500    1964.1424   -702.57966    303940.33    15.147173 
15501000    2054.6097   -678.85266    296679.53    15.047645 
15501500    1870.2768   -660.48154    303679.56    15.059645 
15502000     1972.352   -685.31436    299198.99    15.252915 
15502500    1941.8687   -709.39668    293787.53    15.511013 
15503000    2133.6519   -663.26008    298913.51    15.074904 
15503500    1937.9525   -677.40788    300609.98    15.261563 
15504000    1965.3757   -693.09307    291109.77    15.394244 
15504500    1920.8431   -661.13586    300914.33    15.067996 
15505000     2032.129   -690.02344    299033.36    15.224411 
15505500    1934.0109   -611.95323    313411.36    14.927874 
15506000    2079.6859   -648.54285    299703.64    15.183467 
15506500    2218.5077   -660.69952    299417.63     15.28431 
15507000     2095.893   -633.93276    300181.51    15.093427 
15507500    1955.7036   -672.47713    299060.11    15.440803 
15508000     1857.782   -681.65737    299704.92    15.462419 
15508500    2013.9313   -646.49838    291657.99    15.128734 
15509000    1974.0081   -647.16528     304929.2    15.109278 
15509500    1984.4673    -664.8246    300814.24    15.072942 
15510000     2161.628   -573.19098    314317.09    14.324556 
15510500    2068.8176   -723.82694    293052.05     15.11259 
15511000    1943.9789   -732.13818    295281.23    15.174647 
15511500     1902.099   -682.16025    298378.16    15.139555 
15512000    2057.5984   -613.21728    302962.28    14.567477 
15512500    2008.3181   -695.52034    298843.99    15.403049 
15513000     1839.728   -657.12066    298493.81    15.054965 
15513500    1857.9488    -716.5597    294935.11    15.489362 
15514000    1929.2183   -688.08628    300405.79    15.084871 
15514500    1982.4792   -647.27547     309020.8     14.79918 
15515000    2175.7451   -714.10216     299503.2    15.105841 
15515500    2063.3527   -704.10382    302222.22    15.126428 
15516000    2145.4284   -719.05941    295986.51    15.097219 
15516500    1982.3139   -710.89444    298975.79    15.127668 
15517000    1921.5193   -635.54508    302364.15    14.560497 
15517500    2167.9038   -700.16585    302159.02    14.838369 
15518000    2073.4336   -682.23905    298193.72    14.732067 
15518500    1956.8636   -655.27453    297329.67    14.528099 
15519000    2078.1822   -631.50672    310592.08    14.322701 
15519500    2074.1039   -693.83377    294091.54    14.693076 
15520000    2080.7379   -724.42433    304073.83    14.902229 
15520500    1809.4488   -720.81476    304302.48    14.932539 
15521000    2009.6659   -669.03219    313194.32    14.574659 
15521500    1842.4568   -629.77486     292147.4    14.438933 
15522000    1981.4091   -630.99352    310145.47    14.370485 
15522500    2064.3006   -643.24973     296547.4    14.475197 
15523000    1934.1016   -573.04762    295215.26    14.326603 
15523500      2123.98   -597.25906    302097.31    14.437341 
15524000    1997.1601   -661.64889    295731.27    14.628703 
15524500    1995.1282   -656.30354    301808.78     14.64843 
15525000    2166.5568   -675.60015    306612.42    14.644328 
15525500    2048.8226   -656.99077    299483.87    14.573457 
15526000    2193.9688     -637.846    305550.25    14.449588 
15526500    2058.0459   -729.52413    301300.13    15.043681 
15527000    1925.9047   -672.40099    301813.41    14.631862 
15527500    2161.2479   -736.02456    295405.16    15.048852 
15528000    2009.6779   -660.85178    304306.12    14.516748 
15528500    1942.6449   -721.08232    305246.98    14.853732 
15529000    1940.3758   -716.84761    302955.71    14.871223 
15529500    2039.4924   -700.17276    304099.54    14.807575 
15530000     1985.314   -654.09877    301307.14    14.541933 
15530500    1922.3537   -660.79976    290474.63    14.585608 
15531000    1905.1759   -714.76481    299864.51    14.932291 
15531500    1987.4604   -686.59869    295441.25     14.73898 
15532000    1852.7365   -670.85765    303980.54    14.603625 
15532500    1931.1883   -672.31216     300825.7    14.655245 
15533000    1997.4893   -633.69419    302036.14    14.460387 
15533500    2123.1329     -722.391    287772.58    14.934423 
15534000    1917.5627   -717.43595    300121.53     14.92744 
15534500    1802.4904   -651.38789    288649.83    14.527847 
15535000    2113.1424   -691.66162    296177.48    14.796094 
15535500    1920.5872   -702.23224     302518.9    14.769465 
15536000    1861.2103   -698.78853    298568.26    14.676455 
15536500    1938.8161   -720.75042    302273.97    14.883432 
15537000    1974.9547   -707.40947    295973.57    14.831731 
15537500    2072.5547   -645.17034    309433.66    14.447999 
15538000    2060.7196   -724.19726    305788.85    14.950683 
15538500    1784.3304   -631.81712    304035.84     14.50897 
15539000    2053.9019   -653.13938    306871.89    14.633753 
15539500    2018.9594   -678.90336    298608.76    14.758458 
15540000    1970.9665   -708.64918    298432.98    14.998433 
15540500    2147.2608   -714.37855    295810.96     15.03264 
15541000    1924.0948   -661.37031    297866.33    14.840605 
15541500    2114.4237   -611.75384       299100    14.528816 
15542000    1988.3021   -679.83996    297760.94    15.053531 
15542500    2065.0995    -654.4149    301920.64    14.942892 
15543000    1902.0558   -671.44176     295829.3    15.113283 
15543500    2100.0468   -625.17249    307383.29    14.619954 
15544000    2025.6258   -738.06036     287262.9    15.423225 
15544500     2025.711   -707.95922    308651.37    15.214689 
15545000    1949.1259   -722.42744    299152.23    15.199482 
15545500    1979.0587   -755.85674    274299.49     15.54466 
15546000     2069.861   -709.23703     303615.9    15.296603 
15546500    1906.6472    -687.8787    302219.74    15.123246 
15547000    2092.7978   -709.50177    306427.72     15.41066 
15547500     2191.746   -702.74613    305032.07    15.345434 
15548000    1845.5462   -682.05015    296269.54    15.260187 
15548500    1942.8809   -660.60454    298112.19    15.011218 
15549000    1812.7824   -709.07578     265944.3    15.399631 
15549500    1936.1856   -604.36445     293896.8    14.552919 
15550000    2067.6325   -590.10715    297779.02    14.362544 
15550500    2062.6787   -595.22643    293098.24    14.380441 
15551000    2026.7929   -602.34801    298360.63    14.422747 
15551500    1834.5968   -583.21837    287057.93    14.378183 
15552000    2088.4285   -585.50292    304297.44    14.370064 
15552500    1973.1647   -618.25741    312605.07    14.624883 
15553000    2039.8004   -664.56267    295997.33    14.907482 
15553500    1943.9244   -657.87193    295441.14    14.935653 
15554000    1894.7676   -664.14709     294726.8    15.130825 
15554500    2042.5443   -653.67546     298348.7    15.093752 
15555000    1841.9884   -634.39698    299575.01    14.939256 
15555500    1913.8841   -625.00581    300194.27     14.88704 
15556000    2090.2242   -616.07897    304853.19    14.825951 
15556500    2084.6791   -620.62538    298969.33    14.641978 
15557000     1884.778   -645.42543    293758.52    14.845107 
15557500     1936.055   -639.49264    293156.99    14.849726 
15558000    1972.1692   -751.66598    298491.37    15.607634 
15558500     2080.059   -748.70859    303464.87    15.811846 
15559000    2059.6773   -744.15097    302214.97    15.769252 
15559500    2005.0903   -711.50445    298032.67    15.597556 
15560000    1968.8402   -636.39374    295143.26    15.020924 
15560500    1790.6054   -625.46192    292477.56     14.89059 
15561000    2166.5936   -599.04583    297777.74    14.714232 
15561500    1848.2428   -580.63339    302230.43     14.65558 
15562000    1920.1124    -608.7941    299513.28    14.910409 
15562500    2001.8703   -705.94631    302535.09    15.561863 
15563000    2075.4845   -686.48069    303702.98    15.614941 
15563500    1946.4101   -718.74612    295755.91    15.715342 
15564000    1916.4192   -663.82604    300356.95     15.21755 
15564500    1965.0698   -711.36832    295663.84    15.816583 
15565000    1981.8559   -661.70938    300299.69    15.268559 
15565500    1924.4507   -670.74597    299891.13    15.282837 
15566000    2195.1276    -711.8619    300169.81    15.792542 
15566500    2078.6494   -629.08866     300236.7    15.189548 
15567000    1959.4858   -624.01476    306339.04    15.124234 
15567500     1931.485   -646.68267    303059.93     15.21903 
15568000    1874.0846   -648.54041    291132.27    15.342468 
15568500    2093.3891   -703.61531    297778.24    15.781548 
15569000    2084.0077   -610.90973    301794.57    15.019941 
15569500    1958.7793   -684.24756    304164.11     15.48437 
15570000    2024.3268   -696.54462    295562.37    15.654949 
15570500    1991.9144   -689.73859    302689.25    15.537815 
15571000    1872.1122   -664.22899    299054.05    15.507088 
15571500    1902.4646   -608.91559    301221.18    14.995767 
15572000    1987.1425   -723.86555    299728.14    15.783821 
15572500    2008.2746   -664.98128    296109.31    15.349947 
15573000    1926.9707   -642.52986    293266.66    15.258171 
15573500    1793.5632   -640.78054    297814.18    15.265099 
15574000    1882.6319   -706.30123    297829.38    15.693297 
15574500    1920.5085    -613.6873    304915.38    15.002604 
15575000    2073.4622   -698.77472    297913.95     15.68544 
15575500    2085.6463   -686.25187       300039    15.608837 
15576000    1903.6388   -699.62633    294853.18    15.682462 
15576500    1929.2438   -699.68927    299454.26    15.746103 
15577000    2044.4684   -675.37474    296903.44     15.48284 
15577500     2051.271   -656.24708    300531.32    15.297266 
15578000    1875.3519   -662.20639    301969.49    15.348352 
15578500    2097.6661   -624.10354    301934.08    15.119499 
15579000     1989.778    -607.1718    305914.29    15.017327 
15579500    1965.0355   -701.07151    299719.91    15.680969 
15580000    1980.7196   -661.51166    291563.15    15.415587 
15580500    2124.7413   -646.74093    299384.72    15.253146 
15581000    2021.5895   -629.25868    299619.82    15.206742 
15581500    2037.5196   -618.10513     303559.1    15.095052 
15582000    2089.2424   -695.74187    301712.58    15.735505 
15582500    2146.6475   -661.57066    302698.57    15.300196 
15583000    2053.5532   -645.42678    301406.36     15.23808 
15583500    2003.3989   -681.84311    299938.32    15.465254 
15584000    2080.1113   -639.70489    300532.35    15.214607 
15584500    2052.8596    -640.9275     298694.2    15.258214 
15585000    1895.1116   -654.21828    295924.77    15.305281 
15585500    2014.3808   -700.65588    292752.25    15.782758 
15586000    2168.9143   -629.10248    302042.41    15.098727 
15586500    1969.7992   -677.29704    296367.19     15.24833 
15587000    2124.0684   -742.84051    303464.33    15.839697 
15587500    2058.0477   -746.94869    299201.02    15.862443 
15588000    2060.8964    -716.2419    301496.93    15.578499 
15588500    2003.2295   -698.63655    293985.44    15.331458 
15589000    1796.1695   -577.79848    304486.25    14.601556 
15589500    1918.8686   -600.96971    290953.63    14.774372 
15590000    2106.1893   -590.54052    293303.05    14.710264 
15590500     2047.623   -586.93013    296072.13    14.688674 
15591000    2091.6694   -694.19172    295347.85    15.345144 
15591500    1923.2021   -689.28997     298938.1     15.33191 
15592000     1956.123   -684.43188    297460.39    15.346299 
15592500    2090.5341    -616.9516    303769.22    14.697533 
15593000    1876.0616   -690.22345    299520.61    15.212459 
15593500     1960.608   -699.77122    305869.45    15.287399 
15594000    2062.0843   -656.31026    301948.44     15.03644 
15594500    1953.7361   -700.80689    300892.93    15.411968 
15595000    1935.8228   -655.22367    295079.28    15.104212 
15595500    1967.1468   -654.11529    301832.86    15.058203 
15596000    1886.0322   -709.58117    298943.51    15.507876 
15596500    1734.6349   -691.70983    298253.35    15.237603 
15597000    1950.3903   -693.84459    294383.43    15.341201 
15597500    1810.4294   -653.03584     294536.3    15.318071 
15598000    2166.7672   -571.21279    311425.14     14.64203 
15598500    2077.1729   -702.08161    303329.23    15.505799 
15599000    2012.4466    -719.0117    295703.18    15.567576 
15599500    1881.1128   -691.73816    299350.87    15.186091 
15600000    2051.4749   -686.89139    296000.23    15.170808 
15600500    2039.6405   -586.11655    309215.51    14.540916 
15601000    2108.3371   -704.67848    303481.95    15.188226 
15601500    1979.1142   -693.97929     303124.2    15.135106 
15602000    2120.5164   -698.56812    298383.62    15.274272 
15602500    1931.4362   -681.99435    299628.91    15.058726 
15603000    2056.0922   -696.88778    305487.34     15.05281 
15603500    1960.8867   -684.06974    299693.13    15.005233 
15604000    2068.8933   -705.99808     301263.8     15.15888 
15604500    2001.1676   -700.98436    294235.85    15.174979 
15605000    2122.0356   -697.12612    305642.27    15.151056 
15605500    1928.1075   -721.23685     303455.9    15.415746 
15606000    1980.5779   -738.92256    298814.11    15.465574 
15606500    2083.8546   -612.77599    308370.28    14.615027 
15607000    2100.6457   -627.49093    306946.07    14.708135 
15607500    2115.8684   -683.47578     304930.1      15.0338 
15608000    1914.3906   -720.83128    296043.09    15.337223 
15608500    1950.8758   -759.27245    293971.54    15.758109 
15609000    1894.9589   -635.22609    302473.81    14.744999 
15609500    2057.8539   -646.39692    305099.77    14.717663 
15610000     1826.019   -643.34079    290516.59    14.798921 
15610500    2096.4824   -647.47013    298980.56    14.739402 
15611000    2274.9616   -650.90805    313305.95    14.711471 
15611500    1904.9914   -753.08619    295185.08    15.606671 
15612000    2091.6498   -686.83487     305013.1    14.989124 
15612500    2012.3782   -724.07783    299869.57    15.206733 
15613000     1981.847   -704.97109    299152.16     15.20935 
15613500    2021.1332   -760.86986    282787.79    15.807175 
15614000    1960.8533   -760.88878    297614.77    15.715308 
15614500    1985.1672   -701.80895     301039.8    15.296089 
15615000    2002.2091    -703.6522    302563.44    15.396976 
15615500    1961.5549   -662.80641    298677.67    15.061245 
15616000    2054.9601   -721.76469    303549.62    15.234876 
15616500    2075.8341   -733.59483    302199.53    15.241622 
15617000    1800.8858    -735.4359    293482.54    15.165743 
15617500    2113.4853   -662.24442    309510.16    14.641838 
15618000    1833.3099   -675.93609    281364.35    14.878275 
15618500    1959.3212   -683.25189    306069.57    14.797308 
[...]
29848000    2155.0467    -753.8356    313143.21    15.478947 
29848500     2003.584   -705.85601    308138.46    15.042465 
29849000    2242.4452   -711.96656    308003.63    14.991102 
29849500    1930.5983   -691.66898    301117.75     15.05772 
29850000    2037.5655   -648.32858       307920    14.968609 
29850500    2107.9039   -656.91365    307332.91     15.08377 
29851000    2058.3965   -646.84755    302315.11     15.09878 
29851500    2061.5529   -683.56925    299905.24    15.239517 
29852000    2080.5045   -664.86633    299255.38    15.022296 
29852500    2285.8464   -707.33369     308947.9    15.402052 
29853000    1810.8391   -686.87372    300046.03    15.262399 
29853500    2009.8903   -699.40429    302626.71    15.276142 
29854000    1901.1471   -724.26592    301199.26    15.547893 
29854500     1851.218    -683.6247    297063.64    15.231253 
29855000    2020.8284   -657.02879    302389.46    14.874103 
29855500     2114.811   -720.65501    295058.35    15.290167 
29856000    1802.2599   -698.35891    302964.87    15.214777 
29856500    2116.1373   -696.90584    292358.91    15.349213 
29857000    1969.1172   -681.94178    296734.34    15.246112 
29857500    1905.0237   -694.79116     288182.1    15.359299 
29858000    2131.4218   -662.85151    305573.22    15.132142 
29858500      1801.79   -672.82711    295399.57    15.332454 
29859000    1975.4098   -622.21168    307930.26    14.989811 
29859500    1980.8467   -707.06866    299726.78     15.59321 
29860000    1908.6528   -686.48526    299135.37    15.531533 
29860500    1997.7211   -706.92791    301517.81     15.64588 
29861000    1951.2346   -698.70911    302713.81    15.608558 
29861500     1971.548   -726.02306    296153.58    15.671518 
29862000     1960.021   -727.40346    296009.34     15.78636 
29862500      2127.58   -643.35337    300980.11    14.877556 
29863000    2129.1115   -691.39271    303617.23    15.236092 
29863500    1984.7407   -740.93887    302354.04    15.776633 
29864000    2045.9283   -689.81479     302968.8    15.225007 
29864500     2103.562   -698.13448    302276.52    15.173819 
29865000    1969.0179   -750.49339    302092.32    15.581295 
29865500    1928.5403   -735.00845    302938.74    15.511038 
29866000     1932.421   -731.02633    300998.09    15.471074 
29866500     1900.578   -715.37915    300013.65    15.310491 
29867000    2041.4618   -591.62041    301916.95    14.630026 
29867500    1933.3021   -584.72283    300173.91    14.583474 
29868000    2087.1996   -617.92953    303861.03    14.686992 
29868500    1912.8319    -735.3732    294917.79    15.689022 
29869000    2058.5532   -658.75662    298851.79    15.208373 
29869500    1972.1838   -691.75381     301605.3    15.379583 
29870000    1998.5873   -719.49365    296544.49    15.668449 
29870500    1944.1974   -637.70303    303887.29    14.954937 
29871000     1919.194   -701.64158    296679.95    15.481965 
29871500    2147.1124   -666.52306    303321.35    15.182455 
29872000    1946.5323   -664.54667    297893.25    15.208835 
29872500    1925.1674    -701.1218     302478.8    15.320374 
29873000    2204.5767   -727.85212    300944.34    15.301245 
29873500     2055.923   -630.98624    312994.11    14.584837 
29874000    1864.5083   -632.94645    301040.09    14.806631 
29874500    2060.3325   -703.01602    302808.13    15.204271 
29875000    2058.9674   -694.28172    289462.19    15.405473 
29875500     1957.296   -674.94116    301104.72     15.23617 
29876000    1885.4356   -708.75819    298737.89    15.407753 
29876500    1973.5853   -725.23639    299901.31     15.41251 
29877000    1988.2254   -682.00582    305210.29    15.220611 
29877500    2091.2303   -730.43418    296361.82    15.652304 
29878000    1893.5494   -629.89175    299387.73    14.958976 
29878500    2173.4879   -659.38406    300187.99    14.740709 
29879000    1977.4327   -638.22632    310150.95    14.664785 
29879500    1986.0568   -644.62343    306329.28    14.673007 
29880000    2006.5796   -655.39154    298560.42    14.887591 
29880500    2151.3983   -667.73502    304734.08    15.024935 
29881000    2056.7886   -682.94809     299458.8    15.275582 
29881500     2129.925   -703.64948    310426.57    15.325657 
29882000    2251.1798   -714.08678    301775.94    15.291279 
29882500    2088.4234   -680.56228    300725.96    15.092389 
29883000     2138.563   -713.49022    301619.82    15.376515 
29883500    1930.0343   -667.28266     297774.5    14.991601 
29884000    1944.6711   -651.76803    298797.89    14.837936 
29884500    2024.9496   -693.16972    301951.69    15.130037 
29885000    1752.4863   -674.11808    291023.94      15.1812 
29885500     1832.893   -577.97152     307659.9    14.436113 
29886000    1979.0341   -605.20204     302231.6    14.725503 
29886500     1812.556   -693.44348    295757.18    15.357217 
29887000    1885.9563   -697.06193    297443.69    15.395419 
29887500    1923.5025   -628.20131    298739.01    14.910602 
29888000    1972.5059   -699.76582     291283.4    15.473286 
29888500    2026.7834   -686.71295    298628.54      15.2723 
29889000    2060.9921   -670.09567    301999.15    15.185428 
29889500    1956.0025   -669.28032    296658.98    14.998674 
29890000    2064.3059    -649.6818     299192.3    14.905404 
29890500     2037.304   -745.65105    308734.36    15.655618 
29891000    2274.5699   -756.78529    281612.78    15.612424 
29891500    2008.4278   -723.49013    298898.96    15.112663 
29892000    1933.6204   -722.35776    297690.34    15.282163 
29892500    1887.1125   -748.01493    285834.73    15.466244 
29893000    1961.9696   -719.03042    308748.09    15.137256 
29893500    1951.2838   -730.06254    303560.04    15.289749 
29894000    2049.5348   -728.99332    302288.48    15.335975 
29894500    1985.4638   -713.73938    305874.79    15.128137 
29895000    1889.5253   -731.36045    303963.68    15.232878 
29895500    2028.4672   -760.56693    296603.98    15.454996 
29896000    2058.6715   -738.93244    310176.97    15.189718 
29896500    2190.1573   -758.72649    310872.89    15.607659 
29897000    2131.3203   -751.98716    289674.57    15.633106 
29897500    2176.6102   -748.91052    298964.84    15.646457 
29898000    2004.9075   -749.81653    295683.21    15.520125 
29898500     1858.673   -685.04238    296103.17     14.92667 
29899000    2074.3395     -719.612    303032.89    15.128952 
29899500    2017.6686   -721.95454    299542.81     15.15757 
29900000    2020.6807   -750.55892    303607.32    15.473296 
29900500    1932.0479   -716.38011    305279.44     15.16805 
29901000    2019.1334   -755.34296    300948.36    15.640791 
29901500    1733.9023   -750.40534    297396.68    15.538152 
29902000    2077.5184   -716.18789    307239.72    14.905436 
29902500    2080.4171    -711.6857    310132.73    14.853945 
29903000    1911.3515    -725.1478     296122.2    14.978277 
29903500     1919.954   -679.22516    304447.63    14.591107 
29904000    2065.8307    -687.9856    299216.64    14.665851 
29904500    1991.3846    -680.3267     298099.1    14.689025 
29905000    1901.0864   -654.95855    297770.25    14.579101 
29905500    1926.0527   -692.92285    296047.95    14.648584 
29906000     1932.915   -705.04172       283697    14.815347 
29906500    1871.1622   -713.71264    302716.27    14.880726 
29907000    2051.7038   -666.58807    300162.56    14.621089 
29907500     1990.468   -695.70246    304544.58     14.85025 
29908000    1882.8848   -659.84887    288360.04    14.698807 
29908500    1983.3137   -683.13515    306795.78    14.794108 
29909000    2250.4022   -695.68327    297963.98    14.900339 
29909500     2009.379   -678.80938    291736.97    14.788338 
29910000    1790.9456   -699.63354    288077.85    14.817046 
29910500    1875.2523   -729.45855    286978.18    14.903262 
29911000    2135.4648   -708.66406    294987.35    14.862947 
29911500    1971.5346   -632.70456    303989.82     14.49356 
29912000    1937.8463   -700.80463    304569.28    14.901833 
29912500    1975.0242   -718.66194    302811.59    14.978886 
29913000    1936.4608     -723.071    304409.08    15.047923 
29913500    1895.8282   -638.26161    296191.95    14.521007 
29914000    1976.2384   -656.03782    305368.88    14.593473 
29914500    2098.4974   -714.31802    306346.15    14.869422 
29915000      2189.94   -684.74226    303506.53    14.639037 
29915500    1848.9759   -665.43538    308388.27    14.554029 
29916000    1952.1102   -700.38624    296523.97     14.89604 
29916500    2036.7127   -687.57267    299229.45     14.84118 
29917000    2074.1907   -662.51604    300022.99    14.702479 
29917500    2038.0406   -685.48272    307186.38    14.851618 
29918000    2074.1667   -666.62362    309932.21    14.654367 
29918500    1958.5474   -667.87879    288606.89    14.722557 
29919000    2083.4546   -646.28917     305953.3     14.64412 
29919500    2130.9826   -651.87202    296863.58    14.676569 
29920000    2037.4127   -659.79895    300569.52    14.592162 
29920500    2163.0782   -696.71975    293956.47    14.860648 
29921000    2038.2613   -675.33097    306294.64    14.716143 
29921500    2061.2835   -663.99811    307150.86    14.599661 
29922000    1903.1412    -664.5603     295151.8    14.711583 
29922500    2106.1367   -674.47479    301558.67    14.728938 
29923000    1985.7977   -731.12857    296478.18    15.010392 
29923500    2047.5925   -647.74684    302358.95    14.443392 
29924000    2061.5079   -679.44015    297895.42    14.692043 
29924500    1998.4365   -663.51182    302681.34    14.608282 
29925000    1910.0521   -646.95858    304695.76    14.524489 
29925500    2026.8512   -653.88655    294673.86     14.51377 
29926000    2067.5682   -701.07154    308896.02    14.871303 
29926500    2041.6097   -698.65442    307971.44    14.881366 
29927000    2001.6559   -668.98331    302032.35    14.667697 
29927500    1980.2071   -669.90177    300010.57    14.707095 
29928000    2053.7325   -658.03872    301239.17    14.583023 
29928500    2154.8969   -669.04391    292971.16    14.741974 
29929000    2039.4578   -666.30706    300253.43    14.688763 
29929500    2219.3715   -621.89563    306780.53     14.38321 
29930000    1879.5034   -709.63579    285032.72    14.968995 
29930500    1843.3264   -650.04688    291808.39    14.688509 
29931000    2030.7435   -694.71045     289931.7    14.901163 
29931500    2040.1853   -637.67691    314503.89    14.570011 
29932000    1901.3209   -718.49995    277810.11     15.01731 
29932500    2175.1508   -722.35851    292043.45    14.915051 
29933000    1863.8479   -726.18383    301087.23    14.969772 
29933500    2113.0185   -712.41949    305704.16    14.893605 
29934000    2014.6384   -634.81815    312105.16    14.370338 
29934500    2189.1263   -721.11988    306354.19    14.982372 
29935000    2090.9009   -701.98226    302803.98    14.940532 
29935500    1991.8412   -701.29342       297200    14.955415 
29936000    1757.6558   -585.10873    306061.04    14.341128 
29936500    2236.9491    -628.0823    302853.15    14.562745 
29937000    2009.5953   -722.30633     301145.3    15.511955 
29937500    1961.9805   -712.92979    301695.16    15.427794 
29938000    2271.8272   -681.56524    301614.61    15.247422 
29938500    2122.9094   -666.33491    295188.05    15.205047 
29939000    1984.1183   -669.06495    301622.08    15.135492 
29939500    2069.2267   -699.41313    294879.72    15.449517 
29940000     2165.463   -670.51732    302859.29    15.318762 
29940500    1956.0711   -702.00398    296782.89    15.677317 
29941000    1857.7566   -634.84585    300573.36    15.060269 
29941500    1957.0592   -627.14769    298975.38    15.102152 
29942000    2049.7137   -724.20074     299237.4    15.644243 
29942500    2080.0021   -733.77079    298651.12     15.47685 
29943000    1931.7315   -708.67758    294503.84    15.373172 
29943500    2006.9702   -627.44742     295783.4    14.746195 
29944000    2077.9288   -644.43279    295987.68    14.748804 
29944500    2027.0451   -629.01314    303090.33    14.706769 
29945000    1929.1359   -632.42734    303805.19    14.723784 
29945500    2046.4324   -642.01563    295247.08    14.723389 
29946000    2034.7698   -648.28756    291350.47     14.79197 
29946500    1941.6753   -694.23899    304259.38    15.085808 
29947000    1839.1841   -735.76628     295637.8    15.480867 
29947500    1970.6126    -696.6554    304798.13    15.098223 
29948000    1858.5398   -715.88482     294612.3    15.279502 
29948500    2010.0179   -705.60993    302874.16    15.178313 
29949000    1994.4488   -707.08663    304450.94    15.147698 
29949500    2012.0517    -671.6959    298191.76    14.888642 
29950000    2014.1224   -644.76584    295669.68    14.882099 
29950500    2149.9513   -587.93691    306281.31    14.576677 
29951000    2052.4109   -571.45217    312491.69    14.584304 
29951500    2110.6117   -576.83173    305210.79    14.533379 
29952000    2065.8727   -572.47005    332399.95     14.40473 
29952500    2164.5153   -686.28838     303276.6     14.93382 
29953000    2099.7609   -695.03842    299804.47    14.906944 
29953500    2103.7212    -726.9057    296515.66    15.107013 
29954000    2040.5476   -679.35077    304407.37    14.810636 
29954500    1961.6959   -655.08508    298526.95    14.707022 
29955000    2018.5838    -706.4303    301161.18    14.910553 
29955500    1936.9619    -685.5301    300563.29    14.851942 
29956000    2138.7744   -713.81705    290326.51    14.992172 
29956500    1797.7852   -673.09508    300815.05    14.690217 
29957000    2013.2788    -701.2547    296742.31    14.815297 
29957500    2021.8547   -733.73591    286828.59     15.01395 
29958000    2080.8446   -728.07268    296812.21    14.889135 
29958500    1899.4219   -675.67467    307449.66    14.614526 
29959000    1926.0742   -720.33234    297244.14    14.910511 
29959500    1822.3584   -700.93703    292618.44    14.765287 
29960000    2034.9951   -675.08563    293954.26    14.650289 
29960500    1929.7512   -695.81851    300378.91    14.797784 
29961000    2055.3027   -705.82718    291831.35    14.881863 
29961500    1916.4394   -680.78302    302925.06    14.664082 
29962000    1855.0224   -700.03878    293231.99    14.719255 
29962500    1829.9096   -710.44327    304420.66    14.772968 
29963000    2049.2287   -714.77334     306047.6    14.826601 
29963500    2007.0518   -714.89799    303510.68     14.83131 
29964000    1936.8449   -657.68591    301901.01    14.536693 
29964500    2003.5891   -695.83647    301310.38    14.784757 
29965000     1849.925   -657.43702    299125.54    14.571147 
29965500    1945.5936   -729.13462    293817.75    14.990949 
29966000    1840.0024   -623.94894    309977.27    14.369358 
29966500    2062.6249   -648.36802    300486.57       14.567 
29967000    2234.2878   -701.72303    294259.26    14.931246 
29967500    2075.8995    -698.8502    302145.89    14.900228 
29968000    1994.5938    -663.3724    297795.21    14.658291 
29968500    1996.2337   -700.00883    302655.83    14.911766 
29969000    2033.2464   -685.82401    300834.27    14.836981 
29969500    1958.8867     -650.462    293847.62    14.734232 
29970000    2004.3077   -688.15791    305424.52    14.935356 
29970500    2073.0795   -749.98994    304939.73    15.544786 
29971000     2054.619   -743.14944    302231.99    15.413279 
29971500    2067.8794   -757.26288    293041.84    15.743124 
29972000    2032.2749   -675.44372    300451.78    15.053358 
29972500    1959.9007   -631.94398    304284.86    14.714626 
29973000    2004.3422   -733.56267    305154.74    15.340471 
29973500    1972.7099    -646.3794    304397.64    14.728313 
29974000    1795.4205   -636.17428    304059.21    14.794199 
29974500    2013.9049   -655.69967     302359.8    14.904538 
29975000    1876.9644   -608.07351    306762.36    14.539249 
29975500    1986.0376    -680.9116    297705.78    15.109692 
29976000    2033.6098   -659.09586    304950.68    15.066376 
29976500    2168.7962   -676.58755    301786.48    15.260576 
29977000    2232.9902   -631.66089    300300.35    15.000483 
29977500    2159.9636   -683.86268    299629.52    15.405701 
29978000    1940.5554    -616.9653    309329.51    14.971056 
29978500     2093.795   -728.93879    296549.95    15.729727 
29979000    1869.7989   -728.09918    301358.23    15.569403 
29979500    2012.8101   -748.82643    304015.93    15.665765 
29980000    2010.9939   -740.47422    300118.75    15.428913 
29980500    1931.0686   -743.37771    295379.73    15.654248 
29981000    2124.3371   -745.11063    298301.96    15.546654 
29981500    1751.5679   -710.18523    298504.64    15.245158 
29982000    1986.0266   -634.77316    297635.35    14.585336 
29982500    2007.0623   -592.36776    294352.47    14.417296 
29983000    2065.2483   -582.54935    289459.95    14.462972 
29983500    2285.2179   -601.69958    300907.08    14.506471 
29984000    2098.7637   -584.59884    295752.54    14.433816 
29984500    1876.3004   -580.72972    299840.02    14.542188 
29985000    1893.0367   -571.86249    329375.89    14.416852 
29985500     1929.684   -698.04244    305702.48    15.346876 
29986000    1999.9583   -702.76102    305707.33    15.246054 
29986500    1946.0317   -667.22261    295457.49     14.94043 
29987000    1980.3027   -638.80315    299563.96     14.75232 
29987500    1813.1338   -653.74971    299700.45    14.775005 
29988000    1925.3148   -638.04905    299917.58    14.596668 
29988500    2065.3643   -666.48035    299520.27    14.731118 
29989000    2167.9613   -675.02642    299985.86    14.688332 
29989500    1768.6029   -644.44527    301703.64    14.733075 
29990000    2036.9728   -654.71619    301018.59    14.882308 
29990500     1917.012   -654.75738    294641.66    14.869001 
29991000    2003.7492   -646.50069    298638.49    14.835502 
29991500    2081.7608   -675.26324    299873.41    15.154049 
29992000    2058.8204   -639.24675     297047.4     14.71666 
29992500    1780.1516   -620.60492    298261.04     14.74135 
29993000    2031.6908   -636.03925     294231.6    14.700556 
29993500    2028.3968   -644.79074    299887.55    14.717471 
29994000    2034.3598   -698.74516    296412.97    14.981615 
29994500    1890.7694   -736.60473     303435.3    15.287087 
29995000    1957.7557   -759.60823    292896.84    15.576499 
29995500    2111.9115   -713.64127    304251.26    15.039563 
29996000    1934.3271   -730.56643    303701.08    15.219069 
29996500    1978.1768   -700.69112    304067.04    14.975134 
29997000    1949.8984   -709.85019    305921.69    14.976194 
29997500    2040.7321   -730.77389    298842.91    15.202602 
29998000    1953.3018   -632.37424    301648.37    14.610688 
29998500    2008.8468   -628.36935    298117.45    14.530916 
29999000    2121.2393   -580.27097    303832.77    14.388697 
29999500    2059.8575   -605.45666    299187.16    14.439113 
30000000    1865.1232   -683.39893    295026.47    14.938027 
Loop time of 67374.5 on 6 procs for 15000500 steps with 250 atoms

Performance: 38.473 ns/day, 0.624 hours/ns, 222.643 timesteps/s
99.4% CPU use with 6 MPI tasks x no OpenMP threads

MPI task timing breakdown:
Section |  min time  |  avg time  |  max time  |%varavg| %total
---------------------------------------------------------------
Pair    | 3793       | 3935.4     | 4011.7     | 110.8 |  5.84
Neigh   | 107.43     | 107.98     | 108.35     |   3.1 |  0.16
Comm    | 906.36     | 988.76     | 1136.1     | 228.9 |  1.47
Output  | 318.69     | 318.71     | 318.81     |   0.2 |  0.47
Modify  | 61965      | 61970      | 61978      |   1.8 | 91.98
Other   |            | 53.24      |            |       |  0.08

Nlocal:    41.6667 ave 48 max 35 min
Histogram: 1 1 0 0 1 1 0 0 0 2
Nghost:    1213.17 ave 1241 max 1177 min
Histogram: 1 1 0 0 0 0 1 1 1 1
Neighs:    3586.83 ave 4369 max 3050 min
Histogram: 2 0 1 0 0 2 0 0 0 1

Total # of neighbors = 21521
Ave neighs/atom = 86.084
Neighbor list builds = 751915
Dangerous builds = 0

write_data	data.final
Total wall time: 18:43:00
