LAMMPS (1 Feb 2019)
echo both

include		in.temp
variable	temperature equal 375.
variable	temperature2 equal 550.
variable	tempDamp equal 0.1 # approx 0.1 ps
include		in.pressure
variable	pressure equal 1.
variable	pressureDamp equal 1.0
include 	in.seed
variable	seed equal 74581
units		metal
include		in.box
variable 	mass equal 22.98977

lattice 	bcc 4.228
Lattice spacing in x,y,z = 4.228 4.228 4.228
region          box block 0 5 0 5 0 5
create_box      1 box
Created orthogonal box = (0 0 0) to (21.14 21.14 21.14)
  1 by 1 by 2 MPI processor grid
create_atoms    1 box
Created 250 atoms
  Time spent = 0.000214453 secs
mass            1 ${mass}
mass            1 22.98977
#change_box	all triclinic


include 	in.setup
variable	out_freq equal 500
variable	out_freq2 equal 500

neigh_modify    delay 10 every 1
include		in.na
pair_style 	eam/fs
pair_coeff 	* * Na_MendelevM_2014.eam.fs Na

timestep	0.002 # According to Frenkel and Smit is 0.001

thermo          ${out_freq}
thermo          500
thermo_style 	custom step temp pe press lx


restart 	${out_freq} Restart.lmp Restart2.lmp
restart 	500 Restart.lmp Restart2.lmp



# NPT


fix             1 all nph iso ${pressure} ${pressure} ${pressureDamp}
fix             1 all nph iso 1 ${pressure} ${pressureDamp}
fix             1 all nph iso 1 1 ${pressureDamp}
fix             1 all nph iso 1 1 1
fix             2 all temp/csvr ${temperature2} ${temperature} ${tempDamp} ${seed}
fix             2 all temp/csvr 550 ${temperature} ${tempDamp} ${seed}
fix             2 all temp/csvr 550 375 ${tempDamp} ${seed}
fix             2 all temp/csvr 550 375 0.1 ${seed}
fix             2 all temp/csvr 550 375 0.1 74581
fix		3 all momentum 10000 linear 1 1 1 angular

velocity        all create ${temperature2} ${seed} dist gaussian
velocity        all create 550 ${seed} dist gaussian
velocity        all create 550 74581 dist gaussian

run             50000
Neighbor list info ...
  update every 1 steps, delay 10 steps, check yes
  max neighbors/atom: 2000, page size: 100000
  master list distance cutoff = 11.2
  ghost atom cutoff = 11.2
  binsize = 5.6, bins = 4 4 4
  1 neighbor lists, perpetual/occasional/extra = 1 0 0
  (1) pair eam/fs, perpetual
      attributes: half, newton on
      pair build: half/bin/atomonly/newton
      stencil: half/bin/3d/newton
      bin: standard
Per MPI rank memory allocation (min/avg/max) = 3.389 | 3.389 | 3.389 Mbytes
Step Temp PotEng Press Lx 
       0          550    -277.7555    1994.6092        21.14 
     500    525.70967   -253.28114   -949.50244     22.11719 
    1000    525.86175   -248.08089    208.72875    22.156389 
    1500     537.1198    -248.5655    359.51721     22.15429 
    2000    521.90568   -250.63811    120.93862    22.048087 
    2500    598.91423   -249.60614   -794.94564    22.270055 
    3000    519.22775    -248.5544    365.23576    22.146877 
    3500    546.12446   -250.04497    -842.2981    22.240085 
    4000    543.73853   -248.74788   -695.93432    22.289693 
    4500    502.42231   -248.49904     478.6725    22.116977 
    5000    528.99005   -249.59245   -86.926042    22.154604 
    5500     566.6052   -247.90597   -179.68466    22.261214 
    6000    499.71263   -250.17509    404.72141    22.042458 
    6500    560.34006   -248.89009    -438.0324    22.240432 
    7000    490.86079   -249.25211    19.935031    22.151612 
    7500    521.71942   -249.69714    139.39059    22.105576 
    8000    541.45948   -249.96438   -130.42261    22.173465 
    8500    531.22149   -251.39256   -451.70803    22.126354 
    9000    502.40111   -250.88618    38.868204    22.096076 
    9500    520.86357   -249.92524   -92.540383    22.141335 
   10000    537.20615   -249.80487   -102.02081    22.117385 
   10500    486.34952   -251.09155   -273.20846     22.09757 
   11000    490.98427   -250.47227    214.95059    22.058543 
   11500    506.74182    -250.6276     322.8274    22.074182 
   12000    526.67855   -250.03835   -315.19025    22.134358 
   12500    496.62962   -251.34132    776.26361    21.985651 
   13000    488.60537   -249.31624   -379.35831    22.181795 
   13500    575.27921   -249.95216    257.08488    22.157678 
   14000    467.23608   -249.57092   -513.94355    22.168633 
   14500    495.09956   -250.12047    333.52783    22.057359 
   15000    491.91531   -251.00323    886.96571    21.987814 
   15500     447.5949    -250.8821   -163.02238    22.100412 
   16000    509.60218   -251.89795    1347.8547    21.890344 
   16500    453.54367    -252.1754   -928.46111    22.110746 
   17000    536.48079   -250.27932    223.26458    22.098055 
   17500    477.60295   -249.62586    601.16871    22.101285 
   18000    526.98753   -252.36397    257.30741    21.994498 
   18500    475.09287   -252.48736   -55.414413     22.02531 
   19000    452.02462   -250.58959   -365.23925    22.089907 
   19500    481.47013   -251.68102    152.93975    21.995361 
   20000    472.84717   -249.82862    272.76618    22.112986 
   20500    494.05575   -251.29596    194.71108    22.047667 
   21000    465.66724   -250.97953   -552.00109    22.131212 
   21500    505.79266   -251.08409    987.99466    21.958965 
   22000    466.17401   -251.87009    576.44933    21.971852 
   22500    453.06854   -249.66713   -590.44853    22.189467 
   23000    479.17007   -252.21533    304.34523    21.983071 
   23500    507.17749   -252.37805   -789.00488    22.123252 
   24000     480.8454   -253.81679    652.02595    21.884683 
   24500     453.8038   -251.80648   -734.07492     22.14004 
   25000    485.62523    -251.6105     303.9012    21.996051 
   25500    468.64613   -251.03313   -935.16982    22.175598 
   26000    461.58107   -252.97396    1376.1245    21.838944 
   26500    407.72628   -252.46656   -630.19647    22.057618 
   27000    449.42782   -252.97333    91.689371    21.949565 
   27500    445.91909   -253.14406   -529.46598    22.026888 
   28000    466.20474   -253.47416    601.10291    21.885459 
   28500    455.04314   -251.65164   -1051.8592    22.163176 
   29000    480.01821    -254.4591    487.25956    21.888485 
   29500    488.95337   -254.16713   -185.21306    21.982994 
   30000    411.82395   -254.40374   -557.88265    21.977031 
   30500    416.09511   -253.62108   -991.81996    22.072236 
   31000    399.46231    -252.8481    1274.8442    21.810077 
   31500    431.76006   -254.05315   -348.26103     21.95649 
   32000     445.1803   -252.05633   -529.89719    22.072463 
   32500     438.6414   -253.45249    409.63435    21.915432 
   33000    448.82801   -253.47363    856.95405    21.854767 
   33500    434.30191   -254.81346   -172.81111    21.933936 
   34000    419.38178   -254.14897    -178.2846    21.938925 
   34500    432.43827   -253.19121    -829.3268    22.067822 
   35000    399.25195   -253.77189    342.42829    21.903729 
   35500    423.35528   -254.27134   -32.001179    21.917985 
   36000      431.716   -254.87781    135.75886    21.874254 
   36500    429.49341   -255.36015    399.88193    21.805165 
   37000    435.28638   -255.03163   -298.06377    21.908949 
   37500    422.43876   -253.80883      377.039     21.88015 
   38000    423.53626   -254.45268   -966.82478    22.038814 
   38500    438.04905   -253.42995    1109.2341    21.850324 
   39000    427.00941   -255.58727    114.77769     21.85588 
   39500    433.93704   -254.38474    527.25221    21.842966 
   40000    430.12146    -255.0243    -1366.647    22.050456 
   40500    426.96037   -255.79505    655.51278    21.810892 
   41000    389.20138   -255.20708   -211.55954    21.881677 
   41500    398.45844   -256.79585   -429.75331    21.881862 
   42000    416.29856   -256.88626   -36.644352    21.821299 
   42500    394.78498   -254.64009     916.3757    21.792883 
   43000    397.23633   -255.33028   -629.59255    21.951407 
   43500    427.88637   -255.96865    813.22512    21.788922 
   44000    422.84269    -254.6498    46.199624    21.910245 
   44500    379.14602   -255.96791    101.40499    21.817002 
   45000    401.55622   -256.69413   -1302.3102    21.970707 
   45500      396.567   -256.15482    944.27446    21.720773 
   46000      421.297   -255.12606   -171.63055    21.918221 
   46500    379.93101   -255.37784   -25.266212    21.890305 
   47000    387.88003   -256.68359   -554.16945    21.886821 
   47500    409.41598   -256.52556      864.172    21.743734 
   48000    346.16285   -255.13499   -813.42193    21.938143 
   48500    392.19371    -257.6999    326.59938     21.74463 
   49000    396.28938   -255.90666   -603.22489    21.933104 
   49500    343.64081   -257.19583    1326.3794    21.641022 
   50000    357.15452   -257.08205   -695.21667    21.868317 
Loop time of 30.3599 on 2 procs for 50000 steps with 250 atoms

Performance: 284.586 ns/day, 0.084 hours/ns, 1646.907 timesteps/s
84.5% CPU use with 2 MPI tasks x no OpenMP threads

MPI task timing breakdown:
Section |  min time  |  avg time  |  max time  |%varavg| %total
---------------------------------------------------------------
Pair    | 18.668     | 19.454     | 20.241     |  17.8 | 64.08
Neigh   | 0.39069    | 0.40211    | 0.41353    |   1.8 |  1.32
Comm    | 0.99466    | 1.7963     | 2.5979     |  59.8 |  5.92
Output  | 8.1669     | 8.1673     | 8.1677     |   0.0 | 26.90
Modify  | 0.42661    | 0.43219    | 0.43777    |   0.8 |  1.42
Other   |            | 0.1077     |            |       |  0.35

Nlocal:    125 ave 127 max 123 min
Histogram: 1 0 0 0 0 0 0 0 0 1
Nghost:    1424 ave 1433 max 1415 min
Histogram: 1 0 0 0 0 0 0 0 0 1
Neighs:    8834 ave 9084 max 8584 min
Histogram: 1 0 0 0 0 0 0 0 0 1

Total # of neighbors = 17668
Ave neighs/atom = 70.672
Neighbor list builds = 1550
Dangerous builds = 0

unfix		1
unfix		2
unfix		3



include		in.dump
dump            myDump all atom ${out_freq2} dump.na
dump            myDump all atom 500 dump.na
dump            myDcdDump all dcd ${out_freq2} out.dcd
dump            myDcdDump all dcd 500 out.dcd
dump_modify	myDump append yes
dump_modify     myDcdDump append yes


timer 		timeout 23:50:00 every 1000
New timer settings: style=normal  mode=nosync  timeout=23:50:00

fix             1 all plumed plumedfile plumed.dat outfile plumed.out
fix             2 all nph iso ${pressure} ${pressure} ${pressureDamp}
fix             2 all nph iso 1 ${pressure} ${pressureDamp}
fix             2 all nph iso 1 1 ${pressureDamp}
fix             2 all nph iso 1 1 1
fix             3 all temp/csvr ${temperature} ${temperature} ${tempDamp} ${seed}
fix             3 all temp/csvr 375 ${temperature} ${tempDamp} ${seed}
fix             3 all temp/csvr 375 375 ${tempDamp} ${seed}
fix             3 all temp/csvr 375 375 0.1 ${seed}
fix             3 all temp/csvr 375 375 0.1 74581
fix		4 all momentum 10000 linear 1 1 1 angular

run             500000
Per MPI rank memory allocation (min/avg/max) = 4.424 | 4.424 | 4.424 Mbytes
Step Temp PotEng Press Lx 
   50000    357.15452   -257.08205   -695.21667    21.868317 
   50500    363.31983   -257.14728   -283.95589    21.842743 
   51000     387.4703   -257.76731   -267.05551    21.815523 
   51500    379.99646   -257.60411    925.92721    21.697408 
   52000    359.12854   -257.43587    447.68968    21.739939 
   52500     413.9167    -256.6129    563.87747    21.781993 
   53000    363.09991   -256.62722    1239.8787    21.676913 
   53500    388.05067   -257.39036   -466.70937     21.85734 
   54000    359.06171   -255.99596   -29.005494    21.818973 
   54500    359.88701   -256.98779   -363.23259    21.828345 
   55000    326.31168   -256.03888   -755.23596    21.937498 
   55500    388.96875   -256.05747   -554.10455    21.910337 
   56000    359.01206   -257.39077   -193.82161    21.820303 
   56500    410.76774   -256.76778    -501.0388    21.895363 
   57000    350.95472   -256.67755    178.68492    21.801795 
   57500    386.82608   -256.63151   -402.61644    21.874855 
   58000    392.95065   -256.91707    187.52165    21.809764 
   58500    390.97163   -258.01374    537.87995    21.708469 
   59000    365.29753    -257.1616    810.66282    21.706699 
   59500      358.372   -256.55639     324.3734     21.77976 
   60000    382.95312   -256.35797    195.44356    21.807059 
   60500    371.00167   -258.02587    240.21755    21.728632 
   61000    359.01251   -256.29274    528.16555    21.770342 
   61500    389.56946   -258.11492    991.17954    21.674042 
   62000    382.12722   -256.65433    1052.8709    21.707181 
   62500     382.6487   -256.57906    488.43224    21.772971 
   63000    379.82761    -255.9621    165.20882    21.828974 
   63500    429.48335   -255.30028    1010.6916    21.782251 
   64000    355.61924   -255.17753    56.922039    21.864266 
   64500    401.35176   -256.09401   -503.88043    21.906704 
   65000    361.46333   -256.61861    88.776261    21.794865 
   65500    318.15936   -256.22639   -400.68572    21.850491 
   66000    369.49364   -257.11512    330.52827      21.7487 
   66500    356.47608    -257.2979   -208.21101    21.818066 
   67000    407.80397   -256.26932   -699.64175    21.918338 
   67500    369.90188   -256.21661   -316.29757    21.886867 
   68000    357.80103    -256.5842   -374.23265    21.860869 
   68500    353.12132   -257.10179    374.88651    21.752628 
   69000    360.85317   -257.23752    458.43185     21.74227 
   69500    364.83066   -255.67798   -16.595564    21.855539 
   70000    388.36858   -255.62558    301.60387    21.818262 
   70500    403.28794   -256.23705     655.0101     21.77144 
   71000    389.09584   -255.85785    12.242545    21.865131 
   71500    388.89075   -255.41684   -135.21306     21.89801 
   72000    378.18969   -257.13255    238.75879    21.778141 
   72500    382.32381   -255.26639   -633.05699    21.949785 
   73000     362.9527   -256.21928   -313.55305    21.873252 
   73500    397.29435   -256.04375   -97.137144    21.855304 
   74000    366.09383   -256.87426   -151.01014    21.823463 
   74500    383.99894   -255.47209   -275.59961    21.886077 
   75000    384.74315   -255.05564   -455.46669    21.934466 
   75500    389.47613   -255.40058   -625.95038    21.953219 
   76000    356.73552   -257.17545   -201.42073    21.822159 
   76500    366.30484   -257.89177   -248.54463    21.818594 
   77000    368.04741   -257.08446     12.38661    21.806454 
   77500     347.6647   -256.24419    483.07139    21.754755 
   78000    374.57702   -255.16485   -694.57571    21.955131 
   78500     369.9035   -255.34497   -1089.4526    21.981538 
   79000    384.84609   -256.25334   -566.98247    21.911836 
   79500    416.93625   -257.60924   -610.74737    21.884118 
   80000    341.30543   -257.83873   -358.55139     21.81229 
   80500    347.38409   -256.13589   -582.77795    21.909249 
   81000    339.52071    -255.9661   -829.67518    21.937851 
   81500    363.23943    -256.9319   -98.038633    21.826729 
   82000    394.38821   -256.13567    79.331776     21.83731 
   82500    385.47508   -257.13528   -150.36773    21.825156 
   83000    369.23573   -255.76788    616.07001    21.772848 
   83500    376.18123   -257.41271    602.14375    21.716959 
   84000    385.94851   -256.69492    298.59941    21.777589 
   84500    380.69372   -256.53693    188.64738    21.812256 
   85000    344.03275   -256.85088    735.88713    21.732027 
   85500    366.11265   -256.29315    660.92557    21.754418 
   86000    364.01615   -256.19655    741.43879    21.740166 
   86500    387.06394   -256.72151    1029.6616    21.704034 
   87000    402.64771   -257.28391    392.36489    21.751695 
   87500    385.38403   -256.10704   -158.34169    21.850405 
   88000    384.36692   -257.47107   -405.31274    21.833302 
   88500    395.23839   -255.86153     21.50762    21.874598 
   89000    356.40641   -257.22965   -141.85292    21.790447 
   89500    374.12862   -256.44147   -414.40162    21.882512 
   90000    363.98492   -256.27037   -997.78302    21.948705 
   90500    396.21503   -256.59104   -540.13229    21.895405 
   91000    362.16467   -257.05309   -394.55144    21.840107 
   91500    381.23349   -258.70562   -8.4689061    21.763388 
   92000    366.85599   -256.25664   -459.20588     21.86846 
   92500    361.27026   -255.49822   -234.53996    21.879424 
   93000    374.03427   -256.40514    832.20581    21.737811 
   93500    418.32449    -256.8274   -202.11098    21.815633 
   94000    379.27077   -255.58047      232.432    21.812319 
   94500    360.58638   -257.23822    204.37959    21.783752 
   95000    354.45227   -256.11497   -26.948911    21.809523 
   95500    364.64366   -256.46479    170.37595     21.80063 
   96000    415.91718    -255.7476   -231.08204    21.874937 
   96500    397.87994   -256.00381   -638.07632     21.94419 
   97000    382.90339   -257.46572   -654.95646    21.880417 
   97500    377.06968   -256.94556   -847.32989    21.896196 
   98000    323.25328   -255.34493  -0.36472609     21.83093 
   98500    369.96633    -256.7671   -104.74305    21.806752 
   99000     410.6849   -256.95277   -59.959424    21.823609 
   99500    350.91007   -257.27635    241.58805    21.760405 
  100000     379.7583    -256.3651     -4.62921    21.830993 
  100500    384.31846   -256.72439   -352.97397    21.843251 
  101000    401.42651   -255.64171   -765.79431    21.947262 
  101500    334.48029   -257.43922   -674.39413    21.851415 
  102000    419.43338   -256.30447   -638.89647    21.916406 
  102500    351.23552   -256.35303   -1033.9126    21.942597 
  103000    401.98326   -256.98519   -325.20523    21.876046 
  103500    359.48712   -256.19236    -616.4176    21.914137 
  104000     335.1877   -256.52453   -677.29512     21.87836 
  104500    361.20894   -256.71644   -316.04566      21.8405 
  105000    396.02351    -255.9978   -298.10406    21.876609 
  105500    410.91136   -255.80964   -629.11699    21.946149 
  106000    396.14644   -256.68357    16.231622    21.817034 
  106500    397.28253   -256.34405    720.51066    21.737884 
  107000    361.98953    -257.7486    1062.0993    21.667625 
  107500    378.49234   -257.33073    490.06143    21.736206 
  108000    366.93359   -256.57893    561.55104    21.756505 
  108500    396.11386    -256.7651    326.55248     21.78986 
  109000     396.7261   -257.02128    2.8417109    21.803308 
  109500     367.6285   -255.81583   -443.90872    21.903669 
  110000    361.38566   -256.40441   -856.54702    21.917033 
  110500    363.06264   -255.52356     37.41219    21.840265 
  111000    370.44805   -256.60685    366.14102    21.763089 
  111500    319.03404   -256.53148    1084.6268    21.680526 
  112000    403.88817   -256.43393    598.21757    21.771286 
  112500    395.33616   -256.06332    605.79901    21.784307 
  113000    385.67237   -256.20802      635.985    21.769349 
  113500    387.05532    -256.7165    1146.2039     21.67984 
  114000    361.56529   -256.27895    1075.8956    21.698436 
  114500    388.55453   -255.84742    409.38519    21.807704 
  115000      400.451   -256.98739    193.59411    21.782974 
  115500    388.11759   -256.22182   -610.11643    21.917783 
  116000    392.94167   -258.34987   -544.89943    21.843652 
  116500     367.6168    -257.0762   -213.67165    21.832829 
  117000    349.81921   -257.33905   -846.80305    21.892766 
  117500    374.13237   -255.59226   -397.03878    21.909697 
  118000    383.52327   -255.56509   -79.652943    21.859337 
  118500    380.02239   -256.80306    620.10734     21.74816 
  119000     387.6115   -256.64436    665.49833    21.759177 
  119500    384.11674   -257.32851   -32.744307    21.813478 
  120000    389.93064   -256.37717   -70.961475    21.847627 
  120500    358.94386   -256.05207   -826.91403    21.930886 
  121000     379.2643   -257.98798   -789.95339    21.851624 
  121500    375.95757   -256.97866   -662.67992     21.88332 
  122000    345.13722   -256.13669   -684.99454     21.89856 
  122500    364.79302   -255.51581   -641.15412    21.942732 
  123000    388.89933   -256.25579   -63.960829     21.84808 
  123500    402.53815    -256.6187    365.90625    21.781006 
  124000    384.81542   -255.95245     286.7516    21.800638 
  124500     377.3633   -256.29549    424.32027    21.774144 
  125000    368.28868      -256.18    546.37876    21.767883 
  125500    344.46096   -256.43439   -470.94215    21.884935 
  126000    371.97915   -257.14007   -226.06168    21.819876 
  126500    361.09881   -257.59515   -128.15183    21.792774 
  127000    377.17672   -256.50041    696.23782    21.729002 
  127500    356.57443   -257.97133    997.55513    21.661111 
  128000    418.84117   -256.43531    408.65147    21.809996 
  128500    390.81346   -257.76153    412.31672    21.727952 
  129000    400.60471      -257.16    252.34891    21.797614 
  129500    377.24826   -255.99974    265.34134    21.812495 
  130000    388.36529   -256.88158    152.85732     21.78615 
  130500    372.09934   -255.61023    961.51067    21.747408 
  131000    408.64121   -256.02407     394.9142    21.792129 
  131500    365.70983   -255.67117    78.348285     21.83711 
  132000    378.56098   -255.82495   -249.25815     21.87172 
  132500    347.50328   -256.55909   -997.57233    21.925149 
  133000    403.46588   -256.90713   -720.69389    21.916459 
  133500    342.01097   -255.75841   -245.61983     21.86555 
  134000    378.34195   -258.36003    246.18507    21.731278 
  134500    378.12979   -257.10068    130.97325    21.784639 
  135000    393.53256   -256.52687    126.97994    21.814039 
  135500    376.02582   -254.74049   -133.27503    21.890758 
  136000    346.46955   -255.97139    150.54735    21.821539 
  136500    372.88353    -257.1494   -104.79677    21.819799 
  137000    394.46515   -254.39659     280.1388      21.8694 
  137500    388.98808   -255.59894    794.39034    21.776093 
  138000    400.40269    -254.7697    306.95709     21.85656 
  138500     364.9901   -256.66645   -495.46525    21.865128 
  139000    385.46645   -257.38767   -277.22743     21.83823 
  139500    378.84842   -256.52513   -102.73106    21.855227 
  140000     379.0288   -255.99271    -51.97414    21.835689 
  140500    407.50167   -256.54562    368.06652    21.795205 
  141000    380.38203   -257.18861    196.49459    21.773279 
  141500    352.46396   -257.22008     725.5902    21.705997 
  142000    386.01481   -256.70654    702.45409    21.731682 
  142500     398.7426   -255.78155    459.94935     21.80187 
  143000    404.24477   -257.47024   -685.87471    21.874788 
  143500     369.1366   -256.52163   -337.82308    21.845876 
  144000    375.63171   -255.90028   -201.46297    21.875595 
  144500    351.53619   -257.31287    158.73897    21.760431 
  145000    385.29292   -256.97498    522.01273    21.737179 
  145500    415.19371   -257.43183    804.15459    21.696019 
  146000    416.18799   -255.87916    1122.1934    21.737697 
  146500    382.36816   -257.39298    226.00826     21.77887 
  147000    379.49847   -257.25739    180.34554    21.779327 
  147500      307.955   -255.03878    361.88486    21.824024 
  148000    380.00292   -256.19702    154.84093    21.813505 
  148500    372.28067     -255.606   -141.03265    21.857327 
  149000    357.14605   -255.74877   -506.84823    21.901843 
  149500    396.08341   -255.98365     -545.156    21.929041 
  150000     370.0349   -254.69341   -555.05816    21.974318 
  150500    360.02139   -256.30402    48.549414    21.839395 
  151000     372.5904   -257.85189    1197.4099    21.644757 
  151500    380.95343   -257.49638    773.42596    21.696606 
  152000    404.43453   -257.41949    160.21159    21.794399 
  152500    382.72592   -257.13065   -11.332779    21.805026 
  153000    400.61811   -257.74057    290.89595    21.771201 
  153500    367.41664   -257.40027    1422.0233    21.619277 
  154000    383.11331   -256.88764    745.14153    21.719701 
  154500    373.83204   -256.49193      260.311    21.789121 
  155000    354.14866   -256.76355    542.07191    21.728591 
  155500    387.61141   -257.28119    647.58125    21.727095 
  156000    353.96312   -255.16413    1348.2724    21.696803 
  156500    359.98359   -255.76921    979.09726    21.720792 
  157000    368.23109   -256.56509   -290.01735    21.853642 
  157500     365.8427   -257.08799   -291.23509    21.846807 
  158000    421.99378   -256.17597   -540.61064    21.909374 
  158500    368.01631   -257.27262   -128.15382    21.812356 
  159000      366.999    -256.8994   -89.614576    21.832812 
  159500    376.46467   -258.66609    402.98998    21.719849 
  160000    396.73736   -257.86276    739.55932    21.703225 
  160500    375.73601    -256.7987   -713.10186    21.890472 
  161000    371.59075   -257.51188    -940.7508    21.866352 
  161500    395.47084   -257.06598   -561.69789    21.875587 
  162000    348.32155   -256.13401   -400.36941    21.870085 
  162500    352.98942   -256.96296   -338.58517    21.848996 
  163000    375.81501   -257.15907   -731.41513    21.885979 
  163500    349.82476   -255.71056    6.5522897    21.856886 
  164000    352.20649   -257.23993    -656.2798    21.844087 
  164500    346.36746   -256.21409    261.20079    21.795792 
  165000    383.16531    -255.8521     220.3223    21.812951 
  165500    385.72664    -257.4218    100.47294    21.774806 
  166000    381.65926    -257.1225    316.20238    21.790035 
  166500     399.2742   -256.78572    133.16293    21.795374 
  167000    347.52367   -255.64106     110.8878     21.82923 
  167500    377.61422   -257.76351    127.07871    21.780911 
  168000    397.53412   -256.68375   -43.092523    21.831472 
  168500     374.9195   -256.72127    148.51756    21.793046 
  169000    384.13391   -257.54922    290.23357    21.772242 
  169500    412.35096   -256.71096   -76.732028    21.820708 
  170000    351.37591   -256.27368    -354.3334    21.856668 
  170500     366.1334   -256.18813   -341.49372    21.864277 
  171000    371.26947   -255.24188    64.133656    21.847441 
  171500    381.70727   -255.83577   -1025.5069    21.971259 
  172000    409.95434   -254.87865   -620.54521    21.964345 
  172500    373.31221   -255.38124   -911.29258    21.964686 
  173000    382.65908   -257.37551   -738.73559    21.874166 
  173500    392.50126   -255.33667    -600.8811    21.956381 
  174000    383.12049   -255.56059   -139.18963    21.874393 
  174500    344.44631    -256.6558    94.514891    21.789907 
  175000    343.05415   -256.40232     158.3678     21.79102 
  175500    418.89995   -255.81026   -157.93211    21.870272 
  176000     376.8076   -256.23578   -105.46446    21.856602 
  176500    343.10759   -257.00269    440.99092    21.751874 
  177000    351.32668   -255.44357    441.93116    21.788015 
  177500    394.52851   -256.85383    455.61542    21.783985 
  178000    364.50169   -256.57453   -265.57247    21.865836 
  178500    449.52995   -257.64164    485.99738    21.763082 
  179000    398.02309    -258.1732    188.04191    21.765256 
  179500    391.19291   -257.78907    1298.1231    21.641932 
  180000    368.35448   -257.82978    644.98396    21.719724 
  180500    384.85135   -256.13851    81.965099    21.828497 
  181000    371.87497   -256.48313    387.17472    21.770325 
  181500    370.23457   -256.85453   -3.8661112    21.814763 
  182000    350.35661   -258.12678   -197.25273    21.769288 
  182500    404.92397   -253.67482    42.249638      21.9271 
  183000    387.81698   -255.88266    369.39654    21.810933 
  183500    395.25301   -256.87078    337.85393    21.771439 
  184000    369.02743    -257.4969      142.037    21.775801 
  184500      357.136   -256.76792    235.48937    21.764025 
  185000    379.90421   -257.82479   -63.059853    21.792912 
  185500    394.53829   -256.74356   -175.12884    21.838099 
  186000    370.43799   -255.16943   -278.73596    21.889537 
  186500    378.21444   -258.08256   -522.08532    21.849891 
  187000    377.08107   -256.46771   -1013.4166    21.938673 
  187500    411.17744   -257.14027   -940.79967    21.905006 
  188000    381.94766   -256.21514    -249.7031    21.864755 
  188500    376.29099   -256.36825     -568.413    21.875768 
  189000    366.86251   -255.01554   -284.59697     21.92246 
  189500    361.69859   -257.26145   -270.91962     21.82935 
  190000    401.77596   -257.12272    117.23979    21.804273 
  190500      403.412   -257.18215      915.031    21.689574 
  191000    378.02952   -256.90816     684.1922    21.735845 
  191500    353.96103     -255.848   -18.873274    21.854735 
  192000    389.97012   -257.62928   -973.81886    21.900174 
  192500    358.33924   -254.85817    -1183.354    22.029508 
  193000    369.36629   -255.18032   -307.52785    21.912058 
  193500    362.84742    -256.9971    -70.58608    21.780337 
  194000    373.23524   -256.24879   -250.69832    21.851299 
  194500    377.15384   -256.22628   -1033.3131     21.95092 
  195000    366.36201   -256.05374   -886.56744    21.927063 
  195500    386.44233    -256.5279   -916.29432    21.925778 
  196000    343.77934   -255.77168   -420.47858    21.879414 
  196500     359.7186   -256.95307   -360.80239    21.826008 
  197000    354.37234    -256.9788   -370.45357    21.842883 
  197500    368.33983   -257.44643   -195.57748    21.811075 
  198000    364.19447   -257.79726   -487.32681    21.812295 
  198500    372.15451   -255.80656    -826.4831    21.931294 
  199000    365.66914   -257.70767   -663.51438    21.847992 
  199500    392.70229   -257.67621   -334.65725    21.815446 
  200000     361.8434   -257.82665    240.37406    21.753404 
  200500    363.66999   -257.24841    242.31482    21.786903 
  201000       359.65   -257.84216    648.63767     21.69388 
  201500    370.76236   -255.99606    693.16464    21.765371 
  202000    389.25299   -256.77551    961.58376    21.721762 
  202500    395.68544   -256.68019   -353.21316    21.870235 
  203000    373.48295   -256.73969   -77.016351    21.804497 
  203500    381.80669   -256.90199    336.72607    21.768159 
  204000    368.03026   -256.94593   -262.44468    21.834909 
  204500    363.03152   -258.71096   -40.956721    21.766044 
  205000    391.11028   -257.66248    528.09317    21.718598 
  205500    366.97894   -256.46679    336.83253    21.771153 
  206000    346.75359   -257.07949   -293.69788    21.825272 
  206500    351.28287   -256.38369   -1017.9561    21.947108 
  207000    337.27723   -256.69654   -54.854017    21.803197 
  207500    417.56919   -256.28033    13.677155    21.845584 
  208000    380.47182   -257.50606    361.20485    21.765769 
  208500    369.70743   -257.56984    192.42984    21.776644 
  209000    418.45833   -255.70333   -451.20058    21.934851 
  209500    356.38271   -257.26994   -355.11925    21.834792 
  210000    335.09928   -257.48015   -557.67121    21.841272 
  210500    348.35519   -256.69536   -346.05379    21.842583 
  211000    396.43853   -257.12698   -407.94894    21.868287 
  211500    408.62044   -255.54499   -873.41466    21.960271 
  212000    374.61938   -256.81172   -495.74718     21.87643 
  212500    383.98368   -256.94874     -184.278    21.827626 
  213000    366.75784    -256.0987     124.0434    21.829151 
  213500    362.89236   -255.59831   -609.60781    21.921361 
  214000    344.89086   -255.42083   -641.79838    21.929008 
  214500    355.47983   -257.02589   -723.15617    21.890682 
  215000    371.92828   -257.48943   -994.05703    21.890196 
  215500    373.58812    -257.3402   -762.14803    21.895177 
  216000    402.39193   -256.06416   -528.15861    21.908593 
  216500    339.89891    -256.6129    544.54302    21.742376 
  217000    362.32151   -256.81275     865.1793    21.707732 
  217500    392.53129   -256.81462    1105.4823    21.703097 
  218000     375.9035   -256.29796    538.24617    21.781653 
  218500    370.21242    -255.5697   -2.0759942     21.83956 
  219000    385.87862   -257.62421   -71.273597    21.788759 
  219500    377.28051   -256.61781    596.40284     21.74456 
  220000    368.36686    -257.1436    1217.1301     21.66553 
  220500    360.49774   -257.20606    478.09513    21.731357 
  221000     401.7383   -255.79569    480.78924    21.795103 
  221500    393.79037    -255.6462    1023.5259     21.75314 
  222000    373.70942   -256.18812    1736.9632    21.646917 
  222500      371.845   -257.28631    103.42177    21.759421 
  223000    353.77502   -255.63851     1048.825    21.727188 
  223500    445.87294   -257.24085    143.14991    21.822278 
  224000    373.71828    -256.7033   -428.46213    21.860062 
  224500    370.13514   -255.60225    30.081194    21.826638 
  225000    387.36595   -256.73521   -441.63853    21.892499 
  225500    374.00024   -256.39723   -772.84755    21.900535 
  226000    383.16331   -257.50038   -121.00508    21.804839 
  226500    372.75862   -257.63794   -104.28679    21.829737 
  227000    370.67865   -258.21511    103.10589    21.767436 
  227500    359.68121   -257.18897    657.24546    21.720184 
  228000    387.95138   -257.57694    325.63385    21.772917 
  228500    369.50494   -255.72332    76.273524    21.847873 
  229000    423.09894   -257.94645    760.74591    21.703547 
  229500    373.00854   -254.91124    703.70516    21.785401 
  230000    384.75203   -256.13572    464.07923    21.791982 
  230500    338.45075     -255.753    525.75702      21.7621 
  231000    418.95537   -256.57549    435.02061    21.794041 
  231500    393.71601   -255.40048    656.70327    21.814591 
  232000    396.38355   -256.40029    28.036829    21.836037 
  232500    355.59689   -256.24613   -366.93748    21.857669 
  233000    362.33288   -256.76688   -338.07057    21.863177 
  233500    363.95387   -257.33347   -1282.5017    21.942339 
  234000    359.80446   -257.21072    -582.1796    21.866266 
  234500     387.2612   -257.21996   -473.66787    21.853818 
  235000     378.8925   -256.04006    30.167042     21.82357 
  235500    406.75778   -256.14544   -1092.9127     21.97608 
  236000    342.96038   -256.88479    -1153.581     21.94967 
  236500    340.36903   -256.46299   -321.00132    21.839292 
  237000    373.56097   -257.20861   -124.83834    21.803513 
  237500    396.81888   -256.48163    139.07834    21.821855 
  238000    367.31608   -258.40757    458.69824    21.719625 
  238500   