LAMMPS data file via write_data, version 8 Feb 2019, timestep = 27508000

250 atoms
1 atom types

1.5076931988116310e-01 2.1849230680141709e+01 xlo xhi
1.5076931988116310e-01 2.1849230680141709e+01 ylo yhi
1.5076931988116310e-01 2.1849230680141709e+01 zlo zhi

Masses

1 22.9898

Atoms # atomic

170 1 2.4127416074070318e+00 4.4962766458372689e+00 6.2859457375731269e+00 5 4 1
239 1 6.1927546734466423e+00 3.7462125627550105e+00 1.0215645992053920e+01 6 8 1
211 1 1.0819391034740079e+01 9.5627965638384556e+00 6.5147843136618402e+00 -5 1 7
43 1 6.5287079933112571e+00 9.6074755006694215e+00 7.0875880850382156e-01 7 0 3
140 1 1.8160299588020537e-01 1.0734564472226442e+01 4.2444490030811393e+00 1 8 -7
143 1 3.9298347708564680e+00 6.5187395856518897e+00 8.8035416074494055e+00 8 -10 1
125 1 9.2603269811002455e+00 8.7370353375418786e-01 2.7499099463557344e+00 -8 -6 12
108 1 8.8708833153636899e+00 6.4880847748780281e+00 8.5875492235029416e+00 -7 -1 5
145 1 1.0043050735109633e+01 3.4484096749664137e+00 9.1406196723874071e+00 -2 2 4
77 1 8.9369166295989135e+00 1.0930383683770504e+01 3.6769544280205624e+00 3 17 -3
69 1 2.2532734979327658e+00 8.7616571952132194e+00 2.6826302388838696e+00 4 -1 9
220 1 4.7421311007163132e+00 1.3474880334345203e+00 7.8083463051061628e+00 4 -1 -3
228 1 7.5612256351718807e+00 4.6657749564268594e+00 1.9231022592262732e+00 5 6 3
166 1 7.3447806196931333e+00 9.0530138538379141e+00 6.5051205806883940e+00 6 -1 9
60 1 4.8830380846994617e+00 1.8411589131503405e+00 3.5857178784871926e+00 6 3 -3
147 1 6.2903654020295647e+00 7.9206809105318667e+00 3.7367199349528613e+00 -8 -1 9
214 1 2.4334239791328245e+00 4.7591246134856400e+00 2.1643485912315703e+00 2 11 1
111 1 1.0082868789636304e+01 6.5377275687844403e+00 4.9927840579248590e+00 -2 9 9
116 1 6.0099531202927983e+00 5.2362418427165114e+00 5.8930100129860721e+00 -3 0 -8
129 1 3.4274463364257137e+00 8.1826234995552021e+00 6.0005650953076062e+00 -1 9 4
221 1 8.3855946685020477e+00 2.7985188026576830e+00 5.6067963909779968e+00 0 -3 -8
215 1 2.5080866413713370e+00 3.5956322580382292e+00 9.9667551832326993e+00 -1 2 6
53 1 1.0966630779541873e+01 8.9031419648203229e+00 1.0115387989688751e+01 -5 1 -4
248 1 5.4123557499000077e+00 1.0701052980129658e+01 8.7156306921578182e+00 0 3 1
156 1 6.3379528764703057e+00 8.0625237305208746e+00 1.0837806632400161e+01 -1 12 10
113 1 1.1896256453216663e+00 2.4252575176793845e+00 4.0434999282779183e+00 -3 -3 3
27 1 8.5311385028436462e+00 5.0988860888977694e-01 9.0193447559165136e+00 2 -5 -1
157 1 5.5133051939543187e-01 1.3843784796139926e+00 8.0292750488645712e+00 2 3 -2
123 1 2.1611565244539195e+00 9.0369803014084074e+00 1.0554965037620622e+01 10 -9 8
47 1 9.1103850742900638e-01 1.0179401972342877e+01 7.8343222512015105e+00 -4 -7 0
57 1 5.4897283965254562e-01 6.3422626978307326e+00 8.6286332180161747e+00 2 -9 -9
29 1 1.6258758069597714e+00 1.9550301084712529e-01 1.0869858795756329e+01 1 -8 0
130 1 8.5514395809302779e-01 2.1233390717022984e+00 1.8477511857686224e-01 6 -3 4
50 1 2.6060466933232371e+00 4.2944914467222697e+00 2.0125282629017377e+01 13 -3 -3
177 1 8.9688117123474846e+00 1.9720155611019068e+00 1.6759664091289228e+01 3 -5 -5
82 1 8.8118227256229673e+00 1.0277174450531703e+01 1.2885049550254200e+01 2 -6 1
59 1 1.6628523650926221e+00 8.3453034264022303e+00 1.9261926943042521e+01 -5 3 3
176 1 6.5426331364876562e+00 4.7512703572991013e+00 1.9480860048992650e+01 -4 -11 3
24 1 6.5578107670181112e+00 8.3502308760883661e+00 1.4841285095689967e+01 8 -7 -1
121 1 1.0302587187581270e+01 4.1265295504725259e+00 1.9581587190416915e+01 -1 -8 5
209 1 8.9943774108033629e+00 2.6410504521083045e+00 1.2568594887525768e+01 0 0 3
144 1 4.0135938107902627e+00 6.2242134603211943e+00 1.7015410570292794e+01 17 -4 -4
63 1 4.1046654965062688e+00 2.9596369542887340e+00 1.7396795250616314e+01 7 -3 -7
93 1 4.0845688447819049e+00 1.0522601222237547e+01 1.6930774313572300e+01 12 2 6
2 1 6.0480032160817947e+00 4.2153138932908174e+00 1.4208088354832382e+01 2 -1 3
200 1 6.5295951214250465e+00 2.7958673926115107e-01 1.8875657617357632e+01 -1 0 -3
161 1 4.4738941583038230e+00 6.9515974312664506e+00 2.1455668766163591e+01 -2 -7 2
246 1 8.6460082757705568e+00 5.5960724943761129e+00 1.6264219785273916e+01 2 -3 7
100 1 5.3245791759728132e+00 1.6526894413755580e-01 1.1394827810551353e+01 5 5 -8
6 1 3.0277260441521703e-01 2.0708703248919504e+00 1.7037485236912591e+01 7 9 -15
213 1 2.1154681041167507e+00 8.6466119699354067e+00 1.5112414405441671e+01 8 1 -1
193 1 6.7428863597039834e+00 7.5802091372808533e-01 1.4698651883677467e+01 -6 0 5
91 1 3.3502483102026228e+00 2.4481122759405709e+00 1.3166525135415190e+01 7 -3 -4
40 1 6.7547269010332647e+00 8.4847256217011484e+00 1.8863169391355171e+01 -6 0 -6
21 1 3.5905737627689471e-01 4.7143734746948471e+00 1.4932647942118681e+01 -12 13 3
120 1 9.0462303415484993e+00 6.7510257537454255e+00 2.1696538182459339e+01 -5 6 -1
195 1 8.7032370945539235e+00 6.1931321352637116e+00 1.2687609566925897e+01 -8 -2 8
241 1 8.9972387804350493e+00 1.6396769733712999e+00 2.1093098220989134e+01 -7 -9 15
128 1 5.3461381961584236e+00 2.0896712401786615e+00 2.1573924051076240e+01 2 0 12
64 1 3.8864911898600178e+00 5.9609145744161642e+00 1.2685339687294118e+01 6 6 -9
206 1 9.6865645546757264e+00 1.0641023175933469e+01 2.0762046672584880e+01 -2 2 -5
236 1 3.6034206692018715e+00 1.0635157812430061e+01 2.1259708396707257e+01 -4 0 -2
159 1 2.1866319605890694e-01 6.6935956891954218e+00 1.2403783313965862e+01 -5 -1 -1
138 1 4.7330715778601871e+00 1.0645958834711704e+01 1.2243054541019191e+01 2 -3 7
74 1 1.0545677657270351e+01 7.7516134567307828e+00 1.8516120594533476e+01 3 3 -8
187 1 6.6519193722376047e+00 1.2975506131300200e+01 6.2871543124610083e+00 -7 5 0
26 1 5.0114715946216588e+00 1.9632779272185559e+01 8.2898613355613922e+00 8 6 -6
201 1 6.3324056245603877e-01 1.5069196974569600e+01 3.9490837263258922e+00 -9 11 -8
150 1 9.5179129229569845e+00 1.8834936998226922e+01 8.0238283974792797e+00 4 2 12
242 1 9.4421990115078565e+00 1.9185686510066194e+01 3.8756652837938335e+00 7 4 2
76 1 4.5378367385625680e+00 1.5760671705611360e+01 7.8359775004732661e+00 4 -2 -1
94 1 2.8252373179283463e+00 1.2328856111891655e+01 6.2373702644795106e+00 -9 9 7
218 1 5.2852162138609042e+00 1.9350517390844470e+01 3.8362086549296337e+00 -2 -1 7
182 1 9.5055128128712756e+00 1.4163299852664309e+01 8.1456315943867050e+00 -4 -5 -1
92 1 6.6400621030084768e+00 1.2806164127031931e+01 1.5644685521329107e+00 -1 0 8
188 1 2.7735332452471604e+00 1.2880573020740719e+01 9.7171601389793025e+00 9 -6 -2
1 1 7.4604615395304705e+00 1.7213849235806716e+01 6.1547239412564387e+00 -4 -1 1
56 1 2.0485435280416016e+00 1.7833168404688891e+01 1.7760101015576379e+00 -4 2 -5
119 1 2.1079451646692231e+00 2.1181723038203810e+01 1.8796456486588828e+00 -1 -10 -3
68 1 8.6690285612809248e+00 1.4790928727571831e+01 3.4740535451528616e+00 2 -7 -3
71 1 6.9610955697460932e+00 2.1388381329419740e+01 5.6441627441308890e+00 -1 5 -1
151 1 2.5976883484872584e+00 1.7462734355740384e+01 5.2610273949027233e+00 5 -4 -6
4 1 1.8025757971742615e+00 1.2680293413623575e+01 2.2573980132779106e+00 5 1 1
146 1 2.4776606435325723e+00 2.1189614964583232e+01 5.7064959306657830e+00 5 7 -6
190 1 4.5158022669523721e+00 1.4585121237058480e+01 3.8591744060108044e+00 1 8 5
117 1 6.7711399520356794e+00 2.1093958250546084e+01 1.2321601070224533e+00 2 2 7
101 1 6.5857117463103974e+00 1.6864231318653363e+01 1.0578984953875956e+01 -6 -8 5
240 1 6.9947444147628444e+00 1.7071203301222614e+01 1.4718860097083921e+00 2 -2 -5
155 1 2.4917022132050461e+00 1.8119913500486462e+01 1.0536757343917159e+01 6 -8 10
199 1 6.0885674743328577e+00 1.3414844327885396e+01 1.0532834089240364e+01 -4 -2 -8
106 1 5.3276084147935021e-01 1.9158566425555041e+01 7.6767764314305014e+00 -11 4 5
109 1 1.0595594150393007e+01 2.1707981041077360e+01 6.1508009951280567e+00 0 -6 -4
12 1 1.0631539015092971e+01 1.7201985759624538e+01 1.0770833397097128e+01 -4 -8 -1
192 1 1.0888433648164211e+01 1.2963275868552351e+01 5.7938072578041542e+00 -4 -1 4
204 1 4.5142551126008748e+00 1.1182066309453885e+01 3.7372281374461025e+00 13 0 1
34 1 8.5193416711343346e+00 1.1099317040770645e+01 9.6695506578842281e+00 -8 -6 -12
87 1 2.2976342732690229e+00 1.7349993015058203e+01 1.8841389149330553e+01 4 -6 -2
49 1 4.6327044570695888e+00 1.9653009729375057e+01 1.6724641294375495e+01 5 1 5
52 1 1.4850014995586498e+00 1.3753301398529761e+01 1.4976998601812866e+01 0 5 4
31 1 6.0730447289278553e+00 1.2811095005952549e+01 1.9112302366689047e+01 3 3 4
148 1 7.4312767824420733e+00 1.6573148309192604e+01 1.4273066699201081e+01 1 -6 -8
154 1 8.8649358351394678e+00 1.9753892744462906e+01 1.1976777612037344e+01 0 -5 1
98 1 2.8479887546845273e+00 2.1600719905829678e+01 1.9441819289198570e+01 7 2 0
174 1 8.4931813949501542e+00 1.9205251844383817e+01 1.6380136328551139e+01 2 1 7
243 1 7.1554175982576429e-01 1.1335674088227453e+01 1.2693858612217307e+01 -1 3 5
16 1 4.8403207918724265e+00 1.5159069912712901e+01 1.6457251036585234e+01 0 4 -9
250 1 9.0528500593963521e+00 1.3972260808495694e+01 1.2571769662024925e+01 2 -1 -1
13 1 4.2825199465848769e+00 1.5236820853667405e+01 1.2884316845232213e+01 -11 -1 -1
178 1 8.8832095682176284e+00 1.4814842573232186e+01 2.1611450870286475e+01 -10 3 -8
75 1 5.0121165125434306e+00 1.8607975874767916e+01 1.3214035982526056e+01 12 -9 1
181 1 8.8761513964501937e+00 1.4579023144751108e+01 1.7244458162053938e+01 -1 -2 0
191 1 6.2385838566693694e+00 1.2558802254443714e+01 1.4744721763756459e+01 11 4 9
37 1 1.0880832378428316e+01 2.0895028024473472e+01 1.4390280761182973e+01 6 -5 1
229 1 3.9915661782791503e+00 1.4984909441459831e+01 2.1521583733912049e+01 -2 -4 8
55 1 6.6069716834443142e+00 1.6194557431749999e+01 1.9092628237894427e+01 9 0 2
152 1 2.4917723458599030e+00 1.3117885081161594e+01 1.8776126768427581e+01 -1 2 -1
185 1 1.6004276991419273e+00 1.7098091042304169e+01 1.5234363358160074e+01 5 2 -4
112 1 3.8447739770881956e-01 1.9790935326632081e+01 1.6834119201914625e+01 -5 -4 -7
54 1 3.3115388182092326e-01 1.4268705643321251e+01 2.1489508148321928e+01 -6 2 -4
85 1 4.3528891087247729e-01 1.5666751187734183e+01 1.1727966057344023e+01 12 -6 3
197 1 2.4201710817244591e+00 2.1519661754963892e+01 1.4977072071001880e+01 -1 7 0
80 1 4.9191489669513944e+00 1.9218955898067755e+01 2.0963398782113476e+01 0 -1 -10
168 1 8.2650626464903052e+00 1.9359804543009162e+01 2.0376685605821642e+01 10 -1 0
212 1 1.0884093601085691e+01 1.7438301487786308e+01 1.4833012171946706e+01 -8 -2 1
67 1 8.4876946278545038e+00 1.1137332371363705e+01 1.6757587045639113e+01 -7 -3 -1
44 1 1.5164099269281353e+01 4.4539361624757383e+00 5.9779587758982231e+00 -4 5 0
88 1 1.8122628490034376e+01 5.5942579825387648e+00 4.3376901885180263e+00 8 9 6
28 1 1.7474581155693674e+01 2.2314062924279825e+00 3.2816550324946094e+00 3 -13 -6
194 1 1.1170970542259374e+01 8.4372839775809361e+00 1.8134992992292738e+00 3 -5 -3
39 1 1.9243128139286387e+01 9.4601472993909557e+00 6.3071048451405227e+00 -3 2 10
227 1 1.6843678484657257e+01 1.9941595555016469e+00 8.0581226982437926e+00 -10 2 11
196 1 2.0087600584964907e+01 3.8855265169581772e+00 1.2641637802429231e+00 12 -1 3
124 1 1.3295113655428358e+01 2.0376630933205107e+00 8.1054003981326783e+00 -8 1 0
164 1 2.0540780455199858e+01 3.4201402764421918e+00 6.8932082855794059e+00 4 4 4
35 1 1.9409404417885334e+01 8.4393212890764993e+00 2.2404023939291178e+00 -1 4 -9
226 1 2.0019044034396135e+01 2.4042874752391979e-01 4.9614082158934893e+00 -14 0 10
23 1 1.1280654584650067e+01 4.0378156580603042e+00 1.8559618323570184e+00 -10 4 4
162 1 1.5215998504508931e+01 8.4830614955915848e+00 1.1430003367069492e+00 3 -5 2
237 1 1.9419243061825533e+01 4.1770960673946309e+00 1.0174250044449558e+01 -5 -2 3
5 1 1.4982320323101463e+01 4.4651755145964671e+00 1.8488805347262423e+00 -3 0 1
17 1 2.1780232834551100e+01 6.6386998759041216e+00 4.4426166528636992e+00 1 -1 4
33 1 1.5698417364163275e+01 5.0234411614339862e+00 9.4632912998821119e+00 0 0 -7
15 1 1.2765861923325566e+01 6.4429480338760152e+00 7.0972079038257920e+00 0 1 -8
225 1 1.3309132999287522e+01 1.0811101592109907e+01 7.9896381895640314e+00 2 3 -1
79 1 1.5894495880630513e+01 8.6479285397196577e+00 6.2364890825943169e+00 6 3 7
249 1 1.3475586957266394e+01 6.7857891292916062e+00 3.2651620002167525e+00 0 4 3
83 1 1.5691961883223358e+01 8.9659461644894023e+00 9.5365076154190493e+00 1 3 -1
118 1 1.9064664849339955e+01 6.4483562211448850e+00 7.2543110655080669e+00 1 -4 0
8 1 1.7327965811611968e+01 1.0561594475001396e+01 3.5445090034348983e+00 7 17 1
234 1 1.9301544116763665e+01 7.9559440676483799e+00 1.0429302605307459e+01 1 2 0
127 1 1.3301635102796340e+01 1.4928109530864286e+00 3.3865578592286312e+00 9 -5 -2
22 1 1.1569721885689917e+01 3.4948487071966037e+00 5.5347000325088773e+00 2 -4 -3
132 1 1.2939282010539042e+01 1.0120625908054926e+01 4.0798986049961510e+00 -1 -8 7
89 1 1.5343437843499046e+01 1.6388313714752556e-01 5.6798947404271711e+00 -4 -9 -1
163 1 1.2149004375559805e+01 5.7671722147922466e+00 1.0965565792097289e+01 0 -4 2
97 1 2.1520627002798999e+01 6.8261993923002224e+00 1.6422835019551840e-01 0 -5 -4
232 1 1.3685660134671817e+01 6.3889591189774917e+00 1.6155695703663937e+01 -7 5 -5
238 1 1.3585303979211821e+01 6.5757583960463029e+00 2.0502258479854230e+01 1 -3 -1
51 1 1.9825245538303928e+01 9.5834992864491628e+00 1.4093474398654074e+01 9 1 -5
78 1 1.6441605941529282e+01 8.7940302046792702e+00 1.4674246633197914e+01 3 2 -7
58 1 1.3598728207860091e+01 9.5755777440474201e+00 1.3205956633385892e+01 0 -8 -1
135 1 1.3756871120601371e+01 1.8964544276975190e+00 1.2291721825909040e+01 -10 -3 -5
133 1 2.0604299007583680e+01 1.5398583930748166e+00 1.2380137736448980e+01 -5 1 -4
165 1 1.7218215743089075e+01 1.6869319207563891e+00 2.0950944824613089e+01 3 -1 4
122 1 1.7302600854117621e+01 6.0341137741872855e+00 1.7222923967504908e+01 0 -6 3
175 1 2.0941762051114519e+01 7.3733126205888029e+00 1.6729819726524234e+01 -10 8 6
18 1 1.3125574135770464e+01 1.7120438778885556e+00 2.1038179558589103e+01 0 4 -6
72 1 2.0687152402883914e+01 4.6248587586590331e+00 1.9247547538488018e+01 0 -5 1
183 1 1.5347926038862688e+01 2.8198973406795820e+00 1.5211538975257069e+01 -3 -1 -6
46 1 1.5497913390733453e+01 8.4055219363827316e+00 1.8507039131695105e+01 7 0 -6
235 1 2.1789868085983780e+01 1.0386688112604233e+01 2.1484587650233635e+01 -9 2 1
7 1 1.8285354390594698e+01 3.2896872845576226e+00 1.7472692654759701e+01 -3 9 -5
45 1 1.9700080971997405e+01 8.9587722842698412e+00 1.9307135213706843e+01 -14 6 4
139 1 1.3622349956929741e+01 1.0322749786446195e+01 1.6865854012531095e+01 -3 -6 1
219 1 1.5707563036252244e+01 4.3749026965966289e+00 1.9768799479242336e+01 10 4 -3
95 1 1.8197324520941066e+01 1.0971022803533719e+01 1.6950068745395164e+01 0 2 -8
99 1 1.2764327029991666e+01 2.8919886562271993e+00 1.7976084748572674e+01 2 -2 4
171 1 1.7346100820356053e+01 2.3073514005089963e+00 1.2246599561315072e+01 -6 -3 -11
103 1 1.8980354390226154e+01 5.8696518842525389e+00 1.3789598521225750e+01 5 8 -7
216 1 1.7485201497319206e+01 6.1720352860538794e+00 2.1731087068455604e+01 3 0 -4
3 1 1.5294776463630869e+01 5.6841528301623576e+00 1.2853471442576543e+01 -8 3 -2
105 1 2.0189775352913980e+01 3.4746472909692583e-01 1.9173597491474201e+01 2 7 -11
189 1 1.7655232946931736e+01 1.0544847930421009e+01 2.1516150999813597e+01 -5 1 1
66 1 1.1371069106225516e+01 3.9509091806475358e+00 1.4265959235143709e+01 1 -2 -9
224 1 1.3056986304558793e+01 1.0180348864218391e+01 2.0519632057436013e+01 7 -6 -4
230 1 1.8849398769598714e+01 2.2270644977654186e-01 1.5411056768649800e+01 4 -7 -4
110 1 1.1227641685541700e+01 8.3436355527552148e+00 1.5255410021373107e+01 -1 3 -8
149 1 1.1116595946858988e+01 1.3032260433882538e+01 1.9428013499591734e+00 -5 1 -2
223 1 1.9822321811961285e+01 1.2861932201648544e+01 1.8182560176336549e+00 0 -2 2
81 1 1.9622295723340276e+01 1.7391777358823216e+01 1.5384961772650421e+00 -3 -1 -1
233 1 1.3310195385843862e+01 1.9829621757735666e+01 7.7431349781716623e+00 -16 -1 7
136 1 1.4810504041011178e+01 1.7412402332069743e+01 6.1702065512217574e+00 0 -3 5
65 1 1.7729907996971196e+01 1.5455437394710025e+01 3.9758824831186081e+00 -1 4 -1
245 1 1.5194112225429343e+01 1.7156533194973786e+01 1.0201516132376399e+01 6 7 -5
180 1 1.6143073916313856e+01 1.3782345986320127e+01 1.0983755767445608e+01 3 -4 3
38 1 1.7555448425663371e+01 1.8723090850110278e+01 7.8485590148298057e+00 -3 2 10
90 1 1.7500243480309322e+01 1.5276279396907755e+01 7.6308273713733792e+00 -1 -2 -5
10 1 1.2945298910284473e+01 1.4802900715352763e+01 8.5254833241766121e+00 -4 -10 -6
42 1 2.0251769025222060e+01 1.7047025021436525e+01 6.1263632717146201e+00 -8 4 2
86 1 1.5057061777368688e+01 1.3062259012940457e+01 5.7634105490046803e+00 -5 -3 -1
102 1 1.2973768930649980e+01 1.9428382777215482e+01 4.1254276605599172e+00 2 5 1
137 1 1.3959246519957604e+01 1.5383179336468961e+01 3.3329661242662953e+00 3 6 -1
184 1 1.7086410253760466e+01 1.1782805741272245e+01 8.5526065083098857e+00 1 3 -4
32 1 1.7443386415418548e+01 1.9085159357264175e+01 4.4746144285326652e+00 4 -5 -1
141 1 1.4497185573592519e+01 1.2334272994268037e+01 1.4330150825164851e+00 -2 -4 -1
210 1 1.9916307651822212e+01 1.2901636261050573e+01 5.6451853011777375e+00 -2 1 2
96 1 1.6939806145069550e+01 1.4680498841421349e+01 4.3713973321588229e-01 -12 -2 8
62 1 2.1529375148316671e+01 1.9206119663878365e+01 3.5627225373676352e+00 12 11 -8
41 1 1.1142442378749978e+01 1.6610152652265405e+01 5.6892248669600871e+00 -5 2 9
222 1 1.4887420188293497e+01 1.7596086004507370e+01 1.5519695771620456e+00 -4 3 5
48 1 1.5406673284922109e+01 2.1205854766482986e+01 1.0395446220926635e+01 -7 -1 2
160 1 1.1756036044253939e+01 2.0401945340701765e+01 9.7056811296520640e-01 4 7 2
25 1 1.1192147594472491e+01 1.7150071644599308e+01 1.2784550290821362e+00 3 -4 1
207 1 1.9922148708337623e+01 1.1806286915228966e+01 1.0042632427167693e+01 9 -8 -4
203 1 1.4983142311403997e+01 2.1058022616831757e+01 1.0600494801430520e+00 -6 8 3
70 1 1.9579970163648806e+01 2.1669310438916639e+01 8.7167533157348469e+00 -7 3 -1
142 1 1.9989444134275875e+01 2.1664643283865885e+01 1.1571080027620966e+00 -2 -6 2
208 1 2.1549863813054060e+01 1.4826438281897996e+01 8.1718527562681800e+00 -1 5 -1
20 1 1.1966988920155364e+01 2.1700370617289032e+01 1.0309361508377854e+01 3 -9 -1
9 1 1.3171495190044507e+01 1.8939933171608402e+01 1.2462720884187199e+01 10 9 -5
186 1 1.9537418864704968e+01 1.7506060884590010e+01 1.4897901166206880e+01 2 -10 -6
115 1 1.1116693981867492e+01 1.6645231987117853e+01 1.8667163792877755e+01 3 -9 3
169 1 2.1692038732638007e+01 1.1091156037121307e+01 1.6933972728279382e+01 2 7 -3
173 1 1.5262633421902883e+01 1.2544384699572772e+01 1.4455399379624268e+01 7 10 5
126 1 1.7366488638782229e+01 1.4374297395839148e+01 1.6745315887316220e+01 0 0 -4
73 1 2.1600264432330562e+01 1.9269993607489106e+01 2.1038325308588735e+01 -1 -2 2
167 1 1.3227172075672215e+01 1.5384379795886396e+01 1.2583398078351385e+01 -5 14 -2
247 1 1.5815937271476539e+01 1.2276758389231302e+01 1.9405613492211231e+01 -1 -2 -2
172 1 1.5674458130161753e+01 2.0596196026848638e+01 1.4405865702203597e+01 -11 7 5
30 1 1.5817508848756153e+01 1.6893617721406322e+01 1.9270707218798250e+01 -3 13 -2
84 1 1.3792721295666238e+01 1.8405595482863422e+01 1.6083783057376941e+01 -2 -3 2
179 1 1.2512527717087545e+01 1.2485925894754082e+01 1.1210834936722529e+01 -1 -1 -1
107 1 1.4023693587124528e+01 1.4776466553319482e+01 1.6358752711047082e+01 8 -6 -9
36 1 1.3281746848182770e+01 1.4767408378720660e+01 2.0786409842153020e+01 -8 -14 -3
202 1 1.6115436822348187e+01 1.6932324998803328e+01 1.3513354594917462e+01 -3 -4 2
11 1 1.9127968290688656e+01 1.6883573143659557e+01 1.9918154921693379e+01 -1 -3 11
131 1 1.9153280425757558e+01 1.3824435528637794e+01 1.3862171726829322e+01 6 0 0
134 1 1.8087779355652259e+01 1.9787810747452113e+01 1.1683845807854677e+01 4 -9 1
244 1 1.1456365880798224e+01 1.2749711417842207e+01 1.8512890730218221e+01 -1 -4 7
114 1 1.9387974361606048e+01 1.2874297500291506e+01 1.9444122737170122e+01 1 -8 -1
198 1 1.7494514266303202e+01 1.9326928874917989e+01 1.7080764114152672e+01 3 -4 6
14 1 1.7601398023316445e+01 1.9739138763705480e+01 2.0650156892710555e+01 3 9 1
153 1 2.1531422896655506e+01 1.9949314684980926e+01 1.2842245154039800e+01 -4 0 4
19 1 1.3885655029849776e+01 1.9146229600738021e+01 1.9694976334383931e+01 -6 -6 -1
205 1 1.5863894070903843e+01 2.1802792365479885e+01 1.7965265646925651e+01 -7 5 5
158 1 1.8848041293221112e+01 1.6333142937168947e+01 1.1249008197154819e+01 -9 -1 1
61 1 2.1146096191936717e+01 1.5522216105627804e+01 1.7282942773369754e+01 1 9 -11
217 1 1.1539002376166190e+01 2.1807826925620599e+01 1.8563133113294136e+01 -2 5 -5
104 1 1.1212629536358115e+01 1.2755471800260889e+01 1.5067196739768070e+01 8 2 -5
231 1 1.7305267834697169e+01 1.1000459769026195e+01 1.2058752346426129e+01 -10 2 -14

Velocities

170 -3.0951593424532335e+00 -2.7561221519618937e+00 -1.7751233079129076e+00
239 -5.9767261511180381e-01 -2.1510765113184940e+00 -5.6081298014759939e-01
211 1.0383803764187378e+00 5.8186252854279301e+00 -1.2360708812735666e+00
43 2.8982989115856590e+00 4.0890605969466876e+00 1.9893780365207627e+00
140 -5.9344265301095422e+00 -5.9322076810400199e+00 -8.9425906227815877e-01
143 1.1542901545530948e+00 2.0247544423326156e+00 1.1988024505893038e+00
125 1.3110539288793481e+00 2.7429633227365740e+00 1.8032900113108314e+00
108 6.5557710210073008e+00 2.7491389892510147e+00 1.9882450683427120e+00
145 6.2857258166106567e-01 4.8441103022526262e+00 -3.3127192956121476e+00
77 -4.0363626392924834e+00 -1.3623276966825397e+00 7.0873328179674022e-01
69 -3.9017727776600480e-01 3.3928955732243793e+00 6.7190887121797105e-01
220 4.9830391102237899e+00 -2.8837742183245330e+00 -7.9469647268458807e+00
228 4.5318341839180079e+00 -4.6694683925538021e+00 3.5339433620853793e+00
166 4.9790345460237545e-01 5.9337061257778450e+00 -4.1691645752983257e+00
60 3.1415723983531021e+00 4.2883220324814415e+00 2.4355476078610199e+00
147 -5.8551177327171700e-01 -1.4669515343003889e+00 2.6431536127363264e+00
214 -2.2293039158499521e+00 -5.7154649970429250e-01 1.2568049198534317e+00
111 -4.7402538025540384e+00 1.1129536781961991e+00 2.2373872663123424e+00
116 1.8923524766844599e+00 -2.8401388632953171e+00 -3.9139662011952643e+00
129 2.4324885513505414e+00 -2.3006277998730282e+00 -1.9698130622472680e+00
221 -2.4551563175785978e+00 -1.5063734450328117e+00 2.2948199410478893e+00
215 1.7414575210696368e+00 -4.1399506922229818e+00 5.9651347497823437e+00
53 -1.9733747968615778e+00 4.4536105303111331e+00 3.4235448434196134e+00
248 9.1064784930906324e+00 2.1507235519047812e+00 -2.5794147572005541e+00
156 3.7756929220800699e+00 2.6572656225580373e+00 -2.5543830537797527e+00
113 2.1810741451804110e+00 -7.5404901362883834e+00 -4.5472842867354091e+00
27 -1.2343388188396740e+00 2.6611620261957802e-01 -6.5053878194793562e+00
157 -1.2482192071397109e+00 3.3403312444726296e+00 1.6249205794492809e+00
123 -6.6326939553959159e+00 7.0245156724687979e-02 -3.1928655985266250e+00
47 -4.1817678000804399e+00 5.6529566913665796e+00 9.5218902504838780e+00
57 2.2044582087470168e+00 -1.8571568893304284e+00 -5.1687257489231075e-01
29 4.9702608217137918e+00 -1.6364506503164300e+00 1.5825972112593891e+00
130 9.1254541277702250e-01 -1.4195853232902620e+00 4.8969514977842694e+00
50 3.7961322238752113e+00 -1.4043321297989548e+00 -3.4276425215736812e+00
177 -3.5335490637167855e+00 -1.1448674140244537e+00 5.8174892892685581e-01
82 2.6258646746715359e+00 1.6622603823003623e+00 -5.1293110805512079e+00
59 2.8805602981155487e-01 -1.5232778014073816e+00 -1.2129275670806516e+00
176 5.4820852904711508e+00 -6.6407460104204556e+00 -4.2371221077217358e+00
24 8.4095512357647415e+00 -3.8050891765071286e+00 -9.9191386421298522e-01
121 3.6876338457963280e+00 -6.2108216632063140e+00 -2.8863001913798292e+00
209 2.0087132468609257e+00 -2.6092963497483921e+00 -5.6724802558074803e+00
144 1.8313495932115731e+00 -1.7874873880023081e+00 4.1284581347689793e+00
63 -2.7576542276319467e+00 -3.5451758668408724e+00 5.3286070505069496e+00
93 2.9530414972139041e+00 -5.7587635242308952e+00 -1.3416165015060681e+00
2 7.8442232472931606e-01 2.7850119763806624e+00 4.3492609823162125e+00
200 4.2342912185080966e-01 8.2651146233361505e-02 -9.4177243105141240e-01
161 -2.6267087256960640e+00 -3.0726975875982043e-01 4.0550852190098166e+00
246 1.0063830418467399e+01 9.0986627335150838e-01 4.2724670691125510e+00
100 4.5659794297420015e+00 -4.5990888344210070e+00 -1.7734174220401677e+00
6 -9.1123701622692199e-01 1.2375318926921768e+00 -5.0023931706646190e+00
213 -1.2309750940312316e+00 -2.4584430788345633e+00 -1.7258093412120852e+00
193 -1.9203369154988070e+00 3.3015660198722743e+00 -4.1221594378124422e+00
91 -6.7472687493505441e-03 9.6625014377854168e-01 5.0549218159976617e+00
40 3.3876561589273644e+00 2.0857010608333679e+00 -6.6104538427114523e+00
21 1.5412792217970905e+00 3.3960729098475655e+00 -2.4937146642340874e-01
120 5.8579565835424709e-02 4.2903678399188516e+00 -9.0120607726913482e-01
195 5.4412457772873304e-02 1.7851189930738933e+00 -1.2144995023818856e+00
241 -2.1320356500233935e+00 3.2520253470985989e+00 4.6328974208294431e+00
128 1.7188501435656223e+00 2.2577088456494740e+00 -7.0541422097331918e-01
64 -1.1959482030546252e-01 -4.5909379141390272e-01 6.8282487073098412e+00
206 -3.0761031375642469e+00 2.8428899014604272e+00 4.7699870167173070e-01
236 1.7770205181905199e+00 2.7768667550712312e-01 -1.4428373389751765e+00
159 2.5862766562275787e+00 -1.6890046306670599e+00 -2.8565600312859951e+00
138 1.7093868083458910e+00 1.6193975245551939e+00 8.1625910752942388e-01
74 -7.2122814929594101e+00 -4.0817876916162943e+00 2.4106289961075782e+00
187 8.4023459928851967e+00 3.4538313765718720e+00 -1.7653674046039641e-01
26 -2.4984718951445481e+00 -5.5213534276631586e+00 -7.5782171957088984e-01
201 -7.0606121106949926e-01 -4.8841209842078586e+00 -2.2207472340580638e+00
150 -1.6257236123899474e+00 -1.9888379649186056e+00 -2.9389228081411409e+00
242 -1.6337241807767857e+00 -2.4433285366801107e+00 1.5183187145492891e-01
76 -6.9580933303735408e+00 1.2979305758338859e+00 -1.4789758628236700e+00
94 1.5248968599789776e+00 1.0649777025759988e+00 1.5093421111778555e+00
218 -5.5316286750614303e+00 -3.8154583083125635e+00 -2.3665000857588696e+00
182 -2.6199946749416489e+00 -4.5457206655843763e+00 -6.1357867646653053e-01
92 6.9731942667396229e-01 -1.5899688183253089e+00 -1.4544504712618445e+00
188 7.2265333373540095e+00 -1.2869278120739991e+00 -2.0306144100778747e+00
1 -9.7086178463844652e-01 -2.8304149411602606e+00 -8.5782797826716994e-02
56 -7.0489396449679234e+00 2.7711605081282706e+00 2.9894772707593460e+00
119 -4.4101787895414741e+00 -4.7338698142183211e-01 -8.7397450676705923e-01
68 -5.7478785183849324e-01 1.7802589191298401e+00 -4.9083452413858328e+00
71 -3.2566206392939021e+00 9.7890774377922596e-01 9.9248720766593710e+00
151 -3.2493897774693212e+00 4.6634938891728375e+00 3.5678027471516685e+00
4 6.3235117825429865e-01 3.1942760873862257e+00 -4.2058302945199992e+00
146 6.9888266606786154e-01 6.5366463102394257e-01 4.7026869352579208e+00
190 7.4151732348848798e-01 -2.4145175119063005e+00 -2.9851112403713209e+00
117 5.1297987989618079e+00 5.9246815216347248e-01 -8.2825323385652450e-01
101 -5.6610801141610052e+00 -1.4523189436733444e+00 -1.6782968294520278e-01
240 3.1675971015062188e+00 -2.6789701063164478e-01 2.8379629815272458e+00
155 -6.2918208297046743e+00 -1.2327764363186594e+01 -1.7763045415109749e-01
199 9.7910830155959971e-01 3.2130313378464024e+00 5.1809985631483346e-01
106 2.9966939039638376e+00 7.8456767074769722e+00 4.0138560569944035e+00
109 -2.8650601086743386e+00 8.4734273991930653e-01 -3.5192999279980031e+00
12 -1.4194476388331516e+00 -4.9494611842439107e-01 -9.8403140901371233e-01
192 -5.9367967963899693e+00 5.3609046839193644e+00 1.5760083615314371e+00
204 5.5041261609338452e+00 4.9176991584049228e+00 2.9724141336716605e+00
34 -1.6883338764247189e+00 3.3582335616099948e+00 -6.7669617147792334e+00
87 4.6183582627333282e+00 3.2282287367194260e+00 -4.1632630854453287e+00
49 2.9897944369835119e+00 -2.9107370963950006e+00 -1.1512730074571449e+00
52 -4.9321966319124630e+00 -2.6940611163018420e+00 -1.1166188411039393e+00
31 -4.7929551534744452e-01 -1.1714186205431250e+00 3.8645840463837007e+00
148 2.5214049754384216e-01 6.8253824855138125e+00 8.3798742541218179e+00
154 -6.4182764653090292e+00 5.5232279707000809e-01 2.1826088958191741e+00
98 2.3525146009471607e+00 3.3218521338180662e+00 -3.0958307451980094e+00
174 1.9782800246576360e+00 4.5066848826716219e+00 -1.7810138572514622e+00
243 -4.7362068413725282e+00 -4.0618456104453502e+00 3.7373688173547137e+00
16 -4.7053103021596865e+00 -1.8861633306266963e+00 -3.2190100288988357e+00
250 1.4325472163421522e+00 5.3201078434768858e+00 4.7861554507058655e+00
13 1.2386932333936287e+00 -6.0911890533370450e+00 -3.1051798568263078e-01
178 2.8345387981074253e+00 -1.1111028373736616e+00 -3.2672232387375000e+00
75 2.1773704355464822e+00 -9.4353253535724146e-01 -1.5101849980654976e+00
181 6.3244607293203767e+00 -1.9357956545994321e+00 -2.7182632915154730e+00
191 -3.3833285124335157e+00 -1.1112114736578007e+00 3.1264276451749023e-01
37 1.0678654986576785e+00 -1.1291562771554395e+00 -2.5557304784742114e+00
229 -1.9995382714095218e+00 1.2297142847048843e+00 -3.4148753375842840e+00
55 4.3462648695615080e-01 -3.6430590644864562e+00 -3.2240956373930540e+00
152 4.0094185911724258e+00 -6.6070752527407173e+00 2.3245464306531090e+00
185 1.8828140987480213e+00 -5.4431036263852830e+00 1.5046984041420115e+00
112 -1.3677092191329137e+00 1.3972402691202506e+00 3.3463293986549383e+00
54 -2.2830170208080349e+00 4.0237470346823141e+00 -8.2710860411766807e-01
85 3.7001236029966633e-01 1.3912513326764839e+00 3.5929664566754433e+00
197 -3.6069304260939861e+00 5.7066490425818390e+00 -2.8184156259509381e+00
80 1.8143607985706931e+00 -2.7350542557981790e+00 1.2736258632262865e-01
168 1.0659485721541573e-01 -1.4259059592433454e+00 -4.8305810783044230e+00