# LAMMPS data file written by OVITO
250 atoms
1 atom types
0.1172577811 21.8827422189 xlo xhi
0.1172577811 21.8827422189 ylo yhi
0.1172577811 21.8827422189 zlo zhi

Atoms # atomic

1 1 15.4725378689 20.2923974612 4.8045677275 0 -1 0
184 1 2.743386757 12.855048836 5.5524977526 0 0 1
180 1 5.3803723764 20.7484773111 3.333409411 1 -1 1
236 1 21.0387768304 13.361817457 1.1020453625 -1 0 0
171 1 16.254907723 17.2459693532 4.3085823154 0 0 0
243 1 11.5618602988 20.6048555861 6.6934551344 1 0 1
154 1 12.8751295849 12.5738420027 2.5414317049 0 0 1
112 1 18.1615725685 0.2958705681 2.363555889 0 1 0
174 1 14.5917839322 0.6584807304 0.9927845898 1 1 0
7 1 6.4748670589 0.5454756905 7.2434543081 1 1 0
68 1 0.3630845084 18.2801558673 7.0271788645 0 -1 0
45 1 5.8274415689 16.640712068 9.8354475589 0 0 0
221 1 14.4316900551 5.5006850035 8.0041088584 0 0 0
139 1 17.7447185364 4.0919527675 7.6979231248 0 0 1
64 1 7.6740400098 5.2387765764 6.1607540602 1 0 0
163 1 8.882167422 17.8258089966 8.2165578748 0 -1 0
96 1 2.0621239566 6.1504352682 9.0982200723 0 0 -1
205 1 15.6549008808 7.5444720937 0.9012233843 0 0 1
18 1 12.7756001612 19.0792175834 3.3038203065 0 0 0
234 1 19.6882341137 16.4334395735 10.683805897 0 -1 0
245 1 19.9139359682 9.0081312831 5.9773070887 -1 0 0
138 1 7.1096063298 9.0423398273 2.9090653983 1 0 1
209 1 12.841007891 0.9235193501 3.8934964589 0 0 0
53 1 19.5054644338 20.0943787715 10.1161968986 0 0 0
148 1 16.3736462571 8.4994544241 8.3684068772 0 0 0
34 1 8.3456737 12.2215766768 1.6888752166 0 -1 0
204 1 17.86320815 3.6345099321 1.8352087067 -1 1 1
233 1 2.6236976235 1.9130369081 2.6178048851 0 2 1
178 1 2.7755189124 19.1668504791 4.0168040828 0 0 0
227 1 19.0347013617 14.4758930395 3.8331288965 -1 0 0
81 1 9.2103075973 0.156889214 9.1690520342 0 1 0
47 1 21.5206438996 11.4695388347 7.3067394948 0 0 0
33 1 17.6297621395 1.3306758687 10.4529124419 0 1 0
194 1 1.2338381162 9.3794779612 10.471499554 1 0 1
35 1 18.4377985882 10.6199338666 2.4060599682 -1 0 0
190 1 11.6159408903 20.4465442633 0.1806087938 0 -1 0
69 1 15.4749114712 3.3804784004 4.7055341258 0 1 0
222 1 19.766826943 18.7044778796 2.2419387759 -1 0 0
21 1 12.2369559059 14.9640845619 5.7158081321 0 0 0
83 1 17.1774847124 5.3289410434 10.8767756013 0 0 0
20 1 5.4319148776 5.0292255835 8.5534980145 0 1 0
241 1 3.6462707586 19.3984298325 7.5634805611 0 0 0
73 1 21.6336135566 21.0449898447 4.5393228767 0 0 0
140 1 17.9091277016 1.1753724483 5.7539289751 0 0 0
143 1 1.750854247 8.4547330554 6.5423994494 1 0 0
146 1 3.8903909472 10.0770500052 3.8346145592 1 1 1
168 1 7.0714749285 2.0710875452 4.2463997859 0 0 1
52 1 8.3832792815 3.3126390713 9.0806839327 0 0 0
49 1 15.3721544234 11.1556358421 0.498139434 0 -1 0
91 1 11.4657859809 2.1984902788 0.8394108338 0 0 0
159 1 6.8043882762 10.8340671764 6.2319084414 0 0 0
36 1 0.7772531304 21.5993400537 9.1098936786 1 -1 0
76 1 15.8054965734 14.7832848547 0.6855398046 0 -1 0
80 1 19.9893405949 6.3678232569 8.6005351147 0 0 0
103 1 17.3622618303 13.0902882113 10.1480449972 0 0 0
26 1 4.7859450417 20.9608375437 10.2170853929 0 -1 -1
116 1 12.7138821136 7.5235787561 3.0647492197 0 0 0
201 1 0.172680451 9.7760902177 0.5788788217 1 1 1
100 1 12.3257144011 4.6572837145 5.5260689503 -1 0 0
5 1 18.6057467251 19.4594334484 6.1018251697 0 0 0
135 1 7.7060301126 15.1503079387 6.0541921407 1 0 0
141 1 3.5506176844 21.083943483 0.3977175129 0 -1 1
37 1 19.1800763722 4.9746776507 5.0065958904 0 0 1
230 1 3.0182054883 7.3280181519 0.8052035683 0 -1 0
239 1 4.4727418182 3.4363814249 5.107186004 0 0 0
104 1 10.2494564085 17.8354918733 4.8931912606 0 0 0
109 1 9.0220061279 18.2970161542 1.2487975453 1 0 0
50 1 9.6707999488 4.7183775944 2.8149177612 0 -1 1
240 1 19.5656555924 9.7111574292 9.6466616626 -1 0 0
193 1 5.462559552 5.8755245617 2.6187889649 0 0 1
212 1 21.71809577 10.92735706 3.9511243826 0 0 0
131 1 14.0003287495 17.6360536409 6.9447969229 -1 0 1
235 1 0.7285152294 15.6914095254 4.0034983864 0 0 1
120 1 13.8013142978 15.4397768559 9.6567153651 0 -1 0
92 1 6.2588150988 17.0821715346 3.2746598374 1 -1 0
86 1 14.4089460421 10.1843239071 4.15947044 -1 0 0
43 1 4.3050239033 8.7743327361 9.8520535367 0 0 0
144 1 7.582870286 8.0830378919 8.5272052811 1 0 0
79 1 9.75989173 14.8780319984 2.7225447486 1 0 0
188 1 16.0143431657 6.9840828442 4.7492553543 0 -1 0
237 1 5.8960289085 13.6940853899 3.4250531471 1 1 1
133 1 3.4960320707 15.279335638 1.0493875429 0 -1 0
101 1 1.0116235909 18.1624018122 0.7722180871 1 0 0
61 1 1.7252299885 17.230209121 9.8202503646 1 0 -1
19 1 5.3967689727 2.9598959767 0.449172589 -1 0 0
197 1 10.3604014696 13.9497867879 8.2602626335 0 0 0
155 1 0.9744954696 6.9581518764 3.466968076 1 -1 0
122 1 14.7269379379 0.2049611929 7.6323968509 0 0 0
17 1 12.3370150274 10.1539311999 10.1840374213 0 0 0
13 1 2.754184252 0.8724451223 6.0757028113 1 1 0
167 1 1.8725221173 13.4786477823 9.4382305819 0 0 0
156 1 17.8768758783 11.9162607476 6.4516710059 -1 0 1
217 1 3.4462145545 16.3021879909 6.2128145057 0 0 1
63 1 13.368723574 16.3840210039 2.2855534482 0 0 0
28 1 15.3666934286 14.0518289354 4.9381611799 0 0 0
228 1 16.8593200589 16.1767402021 7.9727000267 0 0 1
132 1 10.2144206754 11.9809644752 5.0494020206 1 0 0
27 1 1.0886441549 4.2211051571 6.2306258035 0 0 0
99 1 9.1310771395 7.2295251507 0.6719203515 0 0 1
206 1 20.8996988021 2.3594869232 3.698835343 -1 1 0
203 1 9.8478974239 2.2629855884 6.1021609424 -1 0 1
157 1 9.3904842389 21.4594611864 3.7440912762 -1 -1 1
200 1 5.0249039677 7.7978450402 6.2537740871 0 0 0
195 1 13.7958685588 11.9675794924 7.5441873054 1 1 1
164 1 20.6190233264 1.8753897887 7.9021214084 -1 0 1
175 1 12.561670169 8.7224475727 6.733790669 0 0 0
229 1 19.2632656071 7.0751915147 2.4882681017 -1 0 1
58 1 16.0781617924 18.8961847117 9.9632306809 0 -1 0
78 1 5.269834414 13.5218243953 8.4793580333 0 1 0
40 1 20.4194996835 15.5397584923 7.2994432963 -1 0 -1
111 1 10.7219231532 6.5600305663 9.1911841293 -1 0 0
215 1 3.2717226229 2.4445815034 8.8590580301 0 1 1
90 1 6.5382568216 19.0583066105 6.1107879142 1 0 0
51 1 9.7056651047 7.8872392753 4.4451580469 0 0 0
250 1 12.1808009394 19.0491184608 9.9469813433 -1 -1 1
102 1 14.0277438396 4.6054313378 2.030801745 -1 1 0
106 1 12.2063997812 2.1823416028 8.7353965393 0 0 0
192 1 2.7886173208 12.1605037429 0.9678230674 1 0 1
32 1 5.6774220936 18.3403208626 0.5030275367 0 -1 0
30 1 21.4924643344 21.5469450175 1.1610798133 1 0 0
70 1 0.2349972848 4.1776890321 0.7843181126 0 1 0
22 1 15.9902485872 18.7707818354 1.3179217357 0 0 1
218 1 8.1269788111 11.1920747872 9.6701018411 0 0 0
214 1 12.0380050453 9.4870203743 0.6471280794 0 0 1
213 1 21.6371698472 3.6595051606 10.6386201003 0 0 0
94 1 7.789903565 0.146684588 0.6340773784 1 1 0
110 1 5.7180344989 10.5477405243 0.1408596309 1 0 0
31 1 11.9266538371 2.0720721143 14.7435439815 0 0 0
145 1 2.463851857 19.6929792035 19.560725497 0 0 -1
16 1 6.089085121 20.6160784697 13.8514859371 1 -1 -1
134 1 12.8401644954 9.4346400949 13.9430552606 0 0 0
137 1 7.2699502829 17.5782110061 14.3011853763 0 -1 0
10 1 19.2647498884 2.4182492681 20.464312319 -1 1 0
179 1 4.2400772118 4.0133925171 14.7401709626 0 1 0
129 1 14.2305825299 11.152857829 19.0882340727 0 0 0
3 1 10.9874927044 12.2433232355 12.5468115369 0 0 -1
54 1 6.759020069 6.0070464895 11.7108276447 0 0 0
246 1 13.1486517903 21.0421235671 16.2863690868 0 0 0
125 1 16.5783167092 15.5995430636 15.9349546212 0 0 0
55 1 21.6880048395 13.6180876308 15.78683473 0 0 -1
62 1 7.1481544411 12.6470541652 18.6206693417 0 0 -1
75 1 18.5212446664 9.8592086012 20.6526387559 0 0 -2
150 1 20.9120164019 18.5745903698 19.7116214802 0 -1 0
9 1 16.6695669328 17.5833933811 19.8401940763 0 0 -1
232 1 18.4322568905 13.441819143 13.8474362223 0 0 1
98 1 4.0937494799 16.807038281 12.7145085078 1 0 0
2 1 10.9738102263 19.8904490681 18.6689465386 0 -1 0
89 1 17.7782550674 19.6169747993 12.7121472918 -1 -1 0
121 1 4.7630230976 9.9105543547 16.5530561099 0 0 0
147 1 12.9079182254 1.4443975374 19.2969608577 0 1 0
108 1 18.5876477743 6.4889689545 20.7013052872 0 1 -1
126 1 6.2741274632 6.7977255943 15.296367249 0 0 0
95 1 19.8471853021 17.3368274163 14.4069622557 0 -1 0
4 1 18.8853768889 3.0156537095 13.2878706596 0 0 1
196 1 14.073507932 13.0425198058 12.03294984 0 0 0
158 1 10.4905608296 6.8429336376 15.6570606209 0 0 1
57 1 16.668962221 6.1261444195 14.0826521063 0 0 0
149 1 0.9366342495 9.4507792293 16.943507566 1 -1 0
25 1 10.0374882297 17.6032588869 15.9527637388 1 -1 -1
72 1 14.8644970466 18.6427814334 13.6152496408 0 0 0
48 1 13.3686740435 17.2988276717 17.1279354399 0 0 -1
153 1 13.5111194404 6.6291031882 11.3969450567 0 0 0
66 1 6.0776797971 0.9519682318 16.0488982992 1 0 0
65 1 12.4924478523 5.8109314843 20.7774321404 -1 1 -1
88 1 1.5457172089 17.6753620235 16.8154358665 1 0 0
56 1 16.4902719382 0.2708934012 18.1317355944 0 0 0
166 1 2.9197262141 0.7708983984 12.5567493535 0 1 0
191 1 0.837223656 15.3322866409 12.7836240003 0 0 0
130 1 11.20494122 19.0854538555 12.9742218921 0 -1 0
97 1 13.562255723 5.8319889944 16.7923648792 0 0 -1
220 1 15.8804591461 8.8987658442 16.194422191 0 0 0
38 1 15.6859436155 9.7589139021 11.7575552658 0 0 0
123 1 19.4275863684 16.6320671121 17.784368035 0 0 0
151 1 16.037560003 4.6618741538 19.3825486222 0 1 0
224 1 21.3505372269 7.7258115675 19.3942733599 0 0 0
244 1 7.525679912 16.0605373698 17.7686219072 0 0 0
67 1 3.5369401196 13.2275181765 19.1307670911 0 0 0
238 1 9.2800961846 10.6543034579 15.5740781127 0 1 0
24 1 10.5368991593 4.0512482874 12.1369267265 0 1 0
202 1 13.3450911054 13.2650651827 15.653296493 0 -1 0
207 1 0.3069822767 6.0332521551 15.1463669264 0 0 0
46 1 9.3177727288 10.3959067483 20.4661100968 -1 0 -1
11 1 3.2969903615 9.8181749658 19.6377971345 1 0 -1
41 1 2.7941017749 2.359362284 17.7074304999 0 0 -1
226 1 9.1345982028 0.4378982194 12.8740456128 0 1 0
177 1 6.0382466693 7.3556443663 20.7398503842 0 0 0
12 1 14.0879093756 20.0321938154 19.4604514037 0 0 0
14 1 21.6622650709 12.1436956974 19.7562311969 0 0 -1
8 1 21.326912754 0.2444280933 18.5654848738 0 1 -1
181 1 21.4142227813 3.922167505 18.7670573966 -1 0 0
176 1 8.5145910315 3.8871362749 21.1779620926 0 0 0
225 1 7.0914218455 19.1041946641 19.5738746316 0 0 0
172 1 3.8158117235 5.1359702136 20.4255699097 1 0 -1
169 1 4.8810814784 18.8130880613 16.5847800235 0 1 0
187 1 0.4690473738 2.803876684 14.8538404763 0 0 0
231 1 18.3100936668 21.0980084781 20.8488728927 -1 -1 0
124 1 5.9238639164 2.1577477345 11.4681611803 0 1 1
87 1 16.7097957215 12.1792846126 16.0647797214 0 0 -1
42 1 8.5396270599 3.5740331863 15.3782693371 1 0 -1
115 1 16.1480483036 0.8347701701 14.2002356024 1 1 -1
6 1 11.6053567557 9.0036119992 17.8545079148 0 0 -1
136 1 21.1483032562 6.6106610156 11.7772350322 0 1 0
84 1 1.5443297682 1.4032299008 20.6655339988 0 1 -1
77 1 19.508407415 10.3600840503 16.6537387575 0 0 -1
59 1 1.0277247694 15.6093092276 19.4775569805 0 -1 -1
242 1 7.8800217352 8.6051176708 17.9209350334 0 0 0
105 1 18.8751928936 9.6526022385 13.1315351769 0 0 0
128 1 21.0313627993 0.4986047962 12.7075359604 0 1 0
165 1 6.599761761 13.5666072006 11.8535241383 0 0 0
182 1 4.5363060978 15.4195812315 16.2486579696 1 0 1
71 1 2.8115153221 12.7201391352 15.2189711549 0 0 0
44 1 2.7531295724 4.6354080955 11.9946360279 0 1 -1
247 1 15.1266999883 8.2983364663 19.4744169198 -1 0 0
60 1 3.5220838613 12.3247599827 11.9514397384 0 0 -1
39 1 11.2818400044 3.5131392104 17.3792398437 0 1 0
74 1 16.7244032537 15.8746648827 11.6635855259 0 0 0
198 1 9.3003674015 14.3359703148 14.8812096658 0 0 0
185 1 18.1815916342 13.2879957128 19.2005180744 0 -1 -1
183 1 10.5440182811 16.070022689 19.7716709253 1 0 0
211 1 6.5476999652 12.5592354672 15.0126702794 0 1 0
170 1 9.2186229592 21.0053592212 15.8216108732 0 0 0
23 1 16.8100645797 19.176455108 16.3673879155 0 -1 0
119 1 3.2697218307 7.79148512 13.4029487619 0 -1 0
210 1 19.6713756434 16.0579468955 21.3015111165 0 0 0
216 1 4.4090200959 16.4623093155 19.6733035748 0 0 0
117 1 3.5094899307 6.3112719367 17.0564677445 0 0 -1
82 1 9.2864852649 1.1231312662 18.9727087815 0 0 0
15 1 1.1761117914 18.93506927 12.8799107219 1 0 0
127 1 20.743247473 20.3054640908 15.9039313116 0 -1 0
93 1 0.3926435739 10.5466700234 13.5375509518 0 0 -1
186 1 18.6889893666 5.4324402221 17.0707325665 -1 0 0
248 1 14.8779052026 3.0708561131 12.0741434257 0 0 0
160 1 19.0991457964 1.4669247919 16.5019266146 0 1 0
208 1 9.8107761544 6.3404163214 19.2348303329 -1 0 0
118 1 15.3671299048 3.1594560686 16.041752876 0 0 0
199 1 6.77032728 4.5498139183 18.1580212172 -1 0 0
142 1 9.1012952777 8.7989807205 12.4452048552 0 1 1
85 1 10.852940982 13.3309085902 18.012069196 0 0 -1
162 1 14.3831769334 14.6683474213 18.9592801565 -1 0 -1
223 1 5.3718786638 0.4957168267 19.4880200667 0 1 0
173 1 2.3730633321 20.8699696427 16.0241231567 0 -1 1
219 1 12.9007306628 17.3468583143 21.0250250531 0 0 0
189 1 13.3027784996 21.7567684609 11.788501609 0 0 0
114 1 5.7445004743 9.7593825832 13.0673593038 1 0 0
161 1 12.6900328205 15.8314983694 13.2490786817 0 0 1
107 1 7.7354533141 14.8982261333 21.4969349106 0 0 -1
152 1 20.7985176931 12.6926658648 11.1609815781 -1 0 0
113 1 11.8948766355 13.3856682648 21.3366393483 0 0 -1
29 1 9.5430108584 15.6964687821 11.1117066466 0 0 0
249 1 8.6658265791 18.9573656831 11.1163636922 0 0 0

Velocities

1 -9.1415377665 -4.7318424248 -5.0209863739
184 -3.7745131094 9.7584864143 -1.1817423153
180 -1.3161744573 -2.3555985688 5.7590596342
236 -0.1767106125 -4.6148287992 1.4234299875
171 -0.5729034913 -1.3349601584 4.3658512449
243 3.3760213755 3.6715463054 -3.970715036
154 -2.731016275 0.09701964 -4.9962396445
112 -0.385062621 5.0290001951 -6.9492602029
174 -0.8029947565 0.2880722658 -3.7558488513
7 3.6237151891 -1.2263465367 2.4715693377
68 0.6699970053 -3.1797829175 2.3973126601
45 1.3929887158 0.3230294201 0.8772228894
221 0.1033282619 5.2707987617 0.3262202363
139 -0.6939968707 2.9601589635 7.2387321284
64 1.438135712 -6.1838724225 6.2535382359
163 -3.8003037638 1.3783868389 -3.8397768796
96 -0.3177401075 -1.4265435372 1.8351486044
205 3.9274698379 2.1577259853 -1.9729368333
18 -1.0490217007 0.6494197463 1.082472759
234 -5.3827156201 0.3454044932 0.6374765672
245 1.8143950563 -0.8199626961 -0.2682176162
138 5.4506994068 -2.7111323962 -2.9979099464
209 0.1907883748 -2.6746323425 0.7085626891
53 4.0326585637 2.3944091481 -1.2737661696
148 -3.4710052859 -2.7794286062 0.9434755844
34 1.6136692667 -5.901664897 4.7705337832
204 -3.1005090224 3.4487693441 0.6502236908
233 0.0692550898 0.8155327438 3.9272335913
178 0.0562108169 -4.8794685372 2.3377974151
227 5.0548842891 3.6403751052 -5.3804420671
81 0.2011511294 0.369172677 3.0057211799
47 4.3220193075 -0.6890106967 -1.1027111532
33 -7.9307057542 -2.9038448738 3.7429308125
194 3.5791836226 1.961836616 -2.7833895133
35 -0.9022631469 -0.5037812236 2.1551043196
190 -3.9871294628 -3.4890730584 -6.1266670354
69 -0.4829303636 0.6178914466 -1.9303527298
222 0.0146675951 -3.4524388618 1.8646286718
21 -2.751940407 -5.6313641982 0.935725224
83 -2.3436518039 2.9963677519 0.9613026106
20 -4.1147639279 1.4654324543 -3.886491301
241 2.7036285967 -3.1763558866 -4.1108659349
73 -0.5219045113 -1.4882711962 -3.9545508804
140 0.8302495532 -3.5165502181 -3.0032503654
143 3.9705703554 -4.3748674201 5.2001504578
146 -0.3854910466 3.851566921 5.9392314445
168 0.0131156534 3.0375707285 1.3539845168
52 -1.7058835221 1.3656047127 -2.1186179548
49 2.959825106 -0.999713543 -5.5370425214
91 2.8690875338 -0.0813702402 0.1544775001
159 -4.0581889351 6.4192937974 -5.7445584367
36 1.3627142616 -8.1289906267 -2.5936967863
76 -5.7164407124 -1.4148097441 7.8397252988
80 6.4050453781 5.110294299 -6.4960054389
103 -1.1209136932 5.1798432375 -3.2987521967
26 -4.8010783278 -2.5037517541 3.0339596631
116 2.7494719122 3.1254606762 8.0588299805
201 -2.3202779509 -3.1978228074 1.9205571308
100 -3.5931199328 4.6300108128 1.8105995415
5 -2.0865462175 4.7006109249 1.20028191
135 1.1635145793 -1.5518682523 0.2838913869
141 3.384820749 7.0397587143 -1.8307599981
37 -7.8174484177 -3.5250841279 4.7728541917
230 3.9072806508 0.7874316162 -0.1429804837
239 7.1124410732 4.4683892403 2.9535315105
104 8.6938729781 0.6196191784 -6.6948411727
109 6.3281247006 4.7228423573 2.2135502503
50 -0.0884599061 -5.6813791917 -0.8866145995
240 -0.9326428822 -6.7322238836 -1.6655256049
193 3.6054902402 -4.6561110327 1.7609967768
212 -0.7915781024 -0.7924574197 -2.0299294788
131 -5.0423641111 -1.4439899076 -1.7084452108
235 -4.9066676562 4.1070102118 3.7505296286
120 -0.1542520412 3.0909520955 7.2975186435
92 1.7072386941 0.1445865106 1.6634677934
86 -1.3837771089 4.0745657323 -1.4552215014
43 -3.232574818 4.376858326 -4.6366834646
144 2.4879066454 1.4137865311 0.8495520024
79 3.8220075294 -2.1590048663 2.0477940184
188 0.1973772186 -1.2923912651 7.0287963477
237 -0.4967074725 -1.24734215 -0.792039052
133 3.1854728666 -0.8099721027 6.7590948244
101 -0.170098033 -2.0872135525 -3.5369712126
61 0.3874268074 -3.2444953772 7.2349021511
19 -2.8459249225 -0.7093278236 3.6443599387
197 -1.5396785379 6.2591598684 4.0869421301
155 3.4736565633 1.3576232453 4.1652808165
122 -4.5461774183 1.2376072385 -1.469332294
17 -0.9758661302 1.8757715928 3.9949553546
13 0.4343910805 -3.6594625907 -3.3391347725
167 -2.4801821379 -5.9648192782 -0.600846327
156 -1.8938365728 -0.3563240617 0.3007347557
217 0.8047760043 5.2522411685 -3.0931126383
63 5.647714014 -5.466379511 1.4368847113
28 -2.0718529554 5.0952531213 -6.8820490697
228 -3.0416168834 -3.5354716163 -0.3041820193
132 0.7583562676 -4.8399602172 2.4403508085
27 -3.532829634 -1.3995514625 -2.1107866644
99 1.9356835049 3.4994875718 -1.0364907008
206 -5.8997789622 3.2797599536 3.9994703487
203 -1.5176196558 -4.2775077959 1.1462707552
157 -0.9547663174 3.3855381005 -3.0999203051
200 1.1404378656 -0.0580121435 -2.9803933046
195 -1.9803685627 -3.9886293425 -2.2550975864
164 0.2627431091 -4.4747514166 -3.9494743557
175 -0.5685565042 2.0231093605 -5.0251148414
229 0.8931091288 -8.499590561 -2.4612044998
58 1.1582208199 4.3583237772 -2.1402604956
78 3.5923207551 -3.6285774195 1.7600305415
40 -1.2431304641 -1.6065109541 -9.1079904593
111 3.3003392791 8.5144016255 -6.8855939451
215 -0.6219519744 0.4536758846 4.6072992649
90 -4.9009192489 3.0000417867 2.9183543362
51 3.1278785793 0.5046183408 1.6417981044
250 4.3040466153 2.3806143518 1.8997473702
102 -4.0453990351 0.5636041096 -3.2836210527
106 2.108144159 5.877046282 -0.4912264088
192 4.3090432259 4.839509949 -1.0287407721
32 -5.8665829753 3.1954434872 -5.3661464911
30 3.5228024742 -0.2523027114 -1.6131253975
70 -1.0049048418 -2.7111455487 3.2391851606
22 -2.1976231468 -5.575249897 -6.0223474672
218 3.4272977646 5.7610916422 -1.3137428416
214 0.486402355 -2.8158365427 0.0692500431
213 7.4805430898 -2.1331593556 -2.1963318681
94 3.7450876472 3.7523279956 5.8071035046
110 -1.0471989069 4.8443807822 3.946753039
31 4.4167852542 -3.872361416 1.4701513062
145 5.3591427463 -3.606173265 2.7862248812
16 0.5664401119 0.4684415477 -5.0541493379
134 1.6281831844 3.6435580533 3.2059064512
137 -1.9960995739 5.5279868666 5.4855673714
10 5.6740890649 4.5894505061 2.3943674959
179 7.1786685999 -3.6719658408 0.8993702794
129 -2.2103894597 1.8364506814 -0.6817115526
3 2.5499986202 0.1267228624 2.5749890804
54 3.5430941947 1.1987193726 4.8180892416
246 -4.7201053334 -3.7394648525 1.0842987912
125 -1.3364367018 -2.9068698717 1.8821106733
55 6.2317431129 6.4111715652 -2.9645698663
62 -0.4587179884 -2.5237365926 -8.1810500952
75 -1.2259468723 2.2750387271 0.4933743996
150 0.6467440864 3.0989126736 7.0039909485
9 -2.7227395063 -4.9293542431 -2.0913658671
232 3.1717276553 1.2946738597 2.4329930239
98 5.1617655966 2.0191088024 4.3951166206
2 -0.3872282144 7.0009637666 3.1249009518
89 4.8265319235 0.1681654324 3.5468586608
121 0.7015993757 -5.9584847401 -2.839423014
147 -0.12479066 -3.3367729945 -0.0982630855
108 -0.334985041 5.3389933558 2.079355443
126 -0.9476358372 -2.2409140182 2.6827256828
95 -6.903280559 0.8209522851 3.369352881
4 0.3982155393 4.842308598 -1.6342020576
196 0.2180624057 5.121895445 -8.4622059298
158 -0.9875476855 -3.5295634666 2.5848098971
57 -2.6572158079 1.2121529771 5.4009550262
149 4.7457303387 -7.2531767377 1.1380168835
25 2.4615851017 -2.3420540862 1.3066432394
72 4.0547101713 1.0287172081 -5.0731753027
48 1.6060657208 -5.122404952 3.0894348195
153 -9.4026415985 2.9106918093 -5.4814085771
66 7.6021399143 -0.3216782306 -0.3683050644
65 -0.2798814281 -3.2451408141 0.6982294019
88 -3.9244335454 1.1446649774 -0.6129050611
56 5.6336864452 -1.3544286004 -0.3522349059
166 5.0965997268 4.6510536569 -4.5835835484
191 -0.154708686 0.1752085636 -4.4743677536
130 0.1112592918 2.9332879291 0.7272772688
97 -0.9164146482 -3.9875456487 -2.3717752549
220 -0.3633566225 0.5336072752 1.1753668073
38 1.5545335124 -3.4555554563 -3.3957044126
123 0.379153945 2.3050830819 -3.070316949
151 -1.162960239 0.8941482576 -3.0248809651
224 1.6020347019 3.0532386878 -2.7345195851
244 0.2711008877 -7.9852607557 0.2907866547
67 -3.9780077686 -0.7507286557 -5.5621661066
238 -1.2949889521 -6.2314478166 0.0873400295
24 -2.8675261513 7.8389663472 3.8986228828
202 6.1501005663 -0.957088905 0.3066146827
207 1.2990502599 -3.2300476073 -2.6740302852
46 -0.0218963508 -5.9367762297 0.366243662
11 2.3886146181 0.5158833053 -0.6429083067
41 3.5468799556 3.9017083125 -8.3050765143
226 -0.8850662005 6.0650496228 -1.8818395404
177 -6.1423358691 -1.9608230505 -5.6437702619
12 2.2151002764 7.7860208856 -1.8251214916
14 1.9521840975 -5.1962026147 -0.4652303748
8 3.7381266817 1.5127379821 -1.4905218667
181 -1.7851351692 -5.7899647082 -2.0634562722
176 -1.1700005004 2.3820517394 -1.1946697152
225 -6.6009985029 1.373603001 1.0999804988
172 -4.4285556999 3.5825458359 0.4923567945
169 0.7562048048 -1.2686065332 -0.557668289
187 -4.4626655837 -3.3355520739 1.2370455834
231 1.3336985199 -0.4511330188 0.7578544115
124 1.9941081468 -2.4623996394 3.9479776126
87 -1.6236735147 -1.1345274399 -7.2898740672
42 0.0484351982 5.4152732874 -2.1581651888
115 4.762533487 3.0195865694 2.4771461196
6 -5.5666779856 0.738551072 6.1069220854
136 -1.2583062907 -6.0515397166 -2.318424914
84 -4.1551063467 4.0318512194 1.1727687567
77 4.3282655441 4.1999284333 -7.3369687606
59 -8.3493854157 0.343067758 1.6458106286
242 -2.4816827133 2.978788524 -0.47294748
105 0.6113045738 -0.8016363126 4.0229169289
128 1.4647750026 -5.7565416927 -4.7494325748
165 1.0087560997 0.8035658052 -10.6993756664
182 4.1579356074 2.4576723652 3.4373730721
71 -3.1268314259 -2.7768519414 -1.4236766298
44 -6.9058407859 1.6135844768 0.4172966959
247 -3.839310242 -5.9903841577 -4.9253031765
60 -4.307240744 1.7062266916 3.6657102654
39 0.7586511303 1.1731620427 -5.9508534906
74 -4.3004949858 4.4232065286 -1.2525782777
198 -3.77362908 0.9783989248 3.4926447421
185 2.7719881082 -5.1216367472 -3.1423408059
183 -3.5231132256 -0.5394122825 10.2190110772
211 2.178481292 -3.1734207106 -6.2852700666
170 0.642934404 6.3651114328 1.8715913838
23 4.9648911434 -3.1040994124 1.1317367985
119 -7.6803974914 -5.1931695355 4.5961664761
210 1.6143891447 -6.2473781698 1.6837974138
216 -2.6989586468 1.2298465566 -0.4059302588
117 4.5155828542 -4.6725212952 3.948467783
82 -6.8796034128 3.3267175835 -1.0310696107
15 3.1514738835 5.4384604142 7.9264493172
127 -0.0875372954 -1.1071276475 -0.1096103677
93 -3.0089960551 -1.3293650857 -0.0790799647
186 -3.2159085267 -8.5707050424 -3.1663540389
248 3.2090199513 3.4248268477 2.4315467879
160 2.4771360173 6.4891813845 2.8308286803
208 -1.571100893 -1.7667552029 -1.1682115953
118 -0.4346562963 -1.4681615028 -0.3406258891
199 -0.6623260176 -0.7365492537 -5.0045377093
142 -7.1965016642 3.7831757027 4.2887869125
85 -3.1307813778 -5.5924564788 2.3761011425
162 -6.555594865 -7.1345188348 -4.617312023
223 5.2092935652 -2.0199802981 2.6196786037
173 -1.4661445761 -3.8064964555 4.6215943372
219 3.7383707038 -8.7397875996 4.0478146423
189 5.0930596561 -0.3465637026 -6.4426287707
114 -4.955461845 0.9930799998 4.3164602175
161 -1.6449615255 8.7524037135 2.3097320526
107 4.69318059 5.8779286079 2.0323225798
152 -1.0259043527 -1.3895539515 1.6466258365
113 3.5744034974 -0.4049431725 -1.9107385272
29 9.4226651342 2.5936822276 0.6200614544
249 -6.2403098783 2.5212074445 6.6719746649
