LAMMPS (8 Feb 2019)
echo both

include		in.temp
variable	temperature equal 350.
variable	tempDamp equal 0.1 # approx 0.1 ps
include		in.pressure
variable	pressure equal 1.
variable	pressureDamp equal 1.0
include 	in.seed
variable	seed equal 74581
units		metal
include		in.box
read_data	data.equil
  orthogonal box = (0.117258 0.117258 0.117258) to (21.8827 21.8827 21.8827)
  2 by 2 by 2 MPI processor grid
  reading atoms ...
  250 atoms
  reading velocities ...
  250 velocities

variable 	mass equal 22.98977
mass            1 ${mass}
mass            1 22.98977
include 	in.setup
variable	out_freq equal 500
variable	out_freq2 equal 500

neigh_modify    delay 10 every 1
include		in.na
pair_style 	eam/fs
pair_coeff 	* * Na_MendelevM_2014.eam.fs Na

timestep	0.002 # According to Frenkel and Smit is 0.001

thermo          ${out_freq}
thermo          500
thermo_style 	custom step temp pe press lx


restart 	${out_freq} Restart.lmp Restart2.lmp
restart 	500 Restart.lmp Restart2.lmp



# NPT

include		in.dump
dump            myDump all atom ${out_freq2} dump.na
dump            myDump all atom 500 dump.na
dump            myDcdDump all dcd ${out_freq2} out.dcd
dump            myDcdDump all dcd 500 out.dcd
dump_modify	myDump append yes
dump_modify     myDcdDump append yes


timer 		timeout 23:50:00 every 1000
New timer settings: style=normal  mode=nosync  timeout=23:50:00

fix             1 all plumed plumedfile plumed.start.dat outfile plumed.out
fix             2 all nph iso ${pressure} ${pressure} ${pressureDamp}
fix             2 all nph iso 1 ${pressure} ${pressureDamp}
fix             2 all nph iso 1 1 ${pressureDamp}
fix             2 all nph iso 1 1 1
fix             3 all temp/csvr ${temperature} ${temperature} ${tempDamp} ${seed}
fix             3 all temp/csvr 350 ${temperature} ${tempDamp} ${seed}
fix             3 all temp/csvr 350 350 ${tempDamp} ${seed}
fix             3 all temp/csvr 350 350 0.1 ${seed}
fix             3 all temp/csvr 350 350 0.1 74581
fix		4 all momentum 10000 linear 1 1 1 angular

run             50000000 upto # 100 ns
Neighbor list info ...
  update every 1 steps, delay 10 steps, check yes
  max neighbors/atom: 2000, page size: 100000
  master list distance cutoff = 11.2
  ghost atom cutoff = 11.2
  binsize = 5.6, bins = 4 4 4
  1 neighbor lists, perpetual/occasional/extra = 1 0 0
  (1) pair eam/fs, perpetual
      attributes: half, newton on
      pair build: half/bin/atomonly/newton
      stencil: half/bin/3d/newton
      bin: standard
Per MPI rank memory allocation (min/avg/max) = 4.009 | 4.009 | 4.01 Mbytes
Step Temp PotEng Press Lx 
       0    385.09131   -257.83988    139.69237    21.765484 
     500    321.81783   -257.86283    1037.0916    21.642794 
    1000    359.34108   -257.51057    1210.7467    21.650266 
    1500    353.20228   -258.13755    664.42161    21.686737 
    2000    316.37433   -257.91309    -264.9686    21.775308 
    2500    378.45075   -257.89155   -610.96322    21.844196 
    3000    334.30595   -257.90974     320.4282    21.728259 
    3500    336.54964   -258.88433     850.3304    21.630793 
    4000    363.29125   -258.65365    328.73381    21.696053 
    4500    334.89535   -258.54085   -233.59559    21.751997 
    5000    323.76635   -258.44401    97.824591    21.738905 
    5500    365.32181   -256.58975   -281.08802    21.846588 
    6000    331.22815   -257.93056    -308.2954    21.797018 
    6500    376.92794   -256.52458   -394.29414    21.876445 
    7000    330.71489   -258.04548   -261.08134    21.781325 
    7500    361.73946   -257.80796   -489.44792    21.830149 
    8000    350.29048   -257.88923   -483.30926    21.837453 
    8500    342.57232    -257.9452    9.8074151    21.758124 
    9000    346.23947   -257.99288    622.88273     21.70117 
    9500    349.10668   -257.95259   -794.01812     21.85959 
   10000    359.45879   -258.28614   -679.20137    21.836152 
   10500    324.13384   -258.39258    25.884716    21.715394 
   11000    336.27896   -257.66367    374.90819    21.701278 
   11500    354.54769   -257.91682     959.0092    21.661677 
   12000    381.76584   -258.99735    363.63394    21.710862 
   12500    355.47881   -258.55622     133.0628    21.712788 
   13000    334.88959   -256.31039   -524.80606    21.867036 
   13500    430.48892    -257.5441   -44.239257    21.803313 
   14000    345.22726   -257.67954    235.04017    21.735108 
   14500    336.63466   -257.13113    935.91012    21.695867 
   15000    355.42621   -258.64342     514.9703     21.67644 
   15500    330.96039    -258.3594   -29.668802    21.719827 
   16000    345.05463   -258.54425    182.67029    21.719901 
   16500     308.8568   -258.20613   -942.90854    21.849561 
   17000    359.95011   -256.03795   -1036.7569    21.931093 
   17500    352.88567   -257.81423    121.81132    21.747832 
   18000    347.34844    -257.9374   -61.568778    21.766463 
   18500    352.83679   -259.20248    328.44271    21.701436 
   19000    329.34099   -257.70067      542.569    21.701505 
   19500    347.82398   -258.35642    94.528278    21.729802 
   20000    366.10224   -258.31789   -434.17291    21.816625 
   20500    375.73657   -258.39024    -633.1752    21.812064 
   21000    339.20709   -255.69868    -364.2027    21.847407 
   21500    370.23025   -257.34612   -307.63511    21.809518 
   22000    360.24394   -258.17668   -176.97439     21.77481 
   22500    351.40327   -257.50007   -415.13967     21.83393 
   23000     336.8347   -258.05647    2.2535575     21.75159 
   23500    373.28315   -258.76321   -101.73761    21.755414 
   24000    366.96188   -259.91103    188.66234    21.694735 
   24500    356.37132   -258.85864    906.12357    21.621497 
   25000    364.20433   -259.15815    850.75829    21.652758 
   25500     366.7462   -260.33567     226.3024    21.692582 
   26000    345.87425   -263.89955   -305.86937    21.664122 
   26500     335.4256   -264.69065   -805.15732    21.680293 
   27000    344.34811   -264.37662    -589.9406    21.672092 
   27500     344.0185   -265.46993   -129.56838    21.602863 
   28000    360.06987   -265.08633   -490.49282     21.66625 
   28500    351.49328   -264.28316   -154.44724    21.644186 
   29000    360.05611   -265.60516    3.6387393    21.598128 
   29500    372.11767   -265.21654    -127.0568     21.62756 
   30000    335.87249   -266.47905   -7.9027781    21.574239 
   30500    326.26933   -264.34182   -271.75881    21.636479 
   31000    337.11946   -265.14106    -248.2819    21.637663 
   31500    329.43427   -264.82578   -298.44782    21.632663 
   32000    348.72597   -264.32887   -134.19365    21.644817 
   32500    346.06703   -264.40669   -605.51107    21.687304 
   33000    346.52467   -264.18671   -715.16609     21.70181 
   33500    350.83595   -265.42183   -546.07798    21.648863 
   34000     352.3836    -264.6488   -131.92935    21.622778 
   34500    350.80787   -264.98208     287.8353     21.58023 
   35000    339.22847   -265.61145    295.21551     21.56444 
   35500    331.70853   -264.81297    275.39679    21.578315 
   36000    335.38485   -265.06243    169.88607    21.581783 
   36500     359.5207   -265.70033    1295.0781    21.458572 
   37000    345.88993   -264.50306    1315.6868    21.483802 
   37500     374.2651   -264.65549    509.23478    21.575427 
   38000    348.23107   -264.46125    327.68011    21.588395 
   38500    358.17159   -263.24552    153.57789    21.641705 
   39000    342.39245   -265.00911   -474.99159    21.659178 
   39500    359.41299   -264.54919    -250.0804    21.655866 
   40000    350.12134   -263.93368   -1046.4643    21.750516 
   40500    370.88601   -264.87012    -894.8872    21.709508 
   41000    342.37042   -265.01443   -360.47301    21.654505 
   41500    335.17382    -265.6359   -75.231883    21.601339 
   42000    362.52508   -265.28707   -747.69139    21.679068 
   42500    353.15697    -264.6671   -478.94557    21.671535 
   43000    369.95376   -265.93895      393.409    21.556394 
   43500    390.31762   -264.61304    603.19287    21.576178 
   44000     373.1823   -264.01953    732.03307    21.558032 
   44500    366.27849   -266.91166     804.5338    21.488864 
   45000    347.86789   -265.72121   -36.352162    21.587975 
   45500    337.91689   -264.75872    202.52928    21.590581 
   46000     382.6673   -264.24054     476.6757    21.596991 
   46500    350.94953    -264.3127    913.96368    21.543722 
   47000     353.2836   -264.16876     60.82783    21.632055 
   47500    375.28307   -264.67703   -87.908928    21.640923 
   48000    326.16154   -263.43424   -98.663586    21.653467 
   48500    369.08635   -265.30322    -187.8539    21.627047 
   49000    354.87296   -263.74196   -14.243686    21.654304 
   49500    325.13534   -265.24231   -389.63713    21.627725 
   50000    338.75506   -264.46901   -516.67553    21.670187 
   50500    371.34392   -265.33272   -229.76102    21.631331 
   51000    370.63523   -262.76666   -271.76437    21.696052 
   51500    347.42452   -265.94544   -288.13705    21.613033 
   52000    376.88914   -263.31598     150.4058    21.650492 
   52500    348.56179   -264.98398   -159.60044    21.623374 
   53000     370.9059   -264.51809    278.46791     21.60054 
   53500    321.03377   -263.22323   -225.49392    21.664072 
   54000    308.81459   -263.45697    270.14231    21.608716 
   54500    356.51509   -264.82728    427.17049     21.58118 
   55000    394.19003   -264.48627    288.92051    21.609523 
   55500    386.70541   -263.47027    749.78988    21.589809 
   56000     337.3835   -262.57567    802.27215    21.573937 
   56500    355.80099   -263.03494    296.10722    21.630973 
   57000     321.6223   -263.19827    622.49656    21.572369 
   57500    362.35551   -264.54455    701.84697    21.545004 
   58000    357.85552   -262.88741    1012.2731    21.561679 
   58500    367.95564   -263.15207    400.21061    21.624978 
   59000    362.11655   -263.75385    214.17481     21.60673 
   59500    352.08259   -263.11891   -68.978982    21.658357 
   60000     361.0345   -265.57889    73.094685    21.582906 
   60500    350.40612    -263.2046    438.85483    21.617275 
   61000    340.90695   -262.95742    1238.0025    21.524799 
   61500    301.88107    -264.0216     908.3177    21.521788 
   62000    366.79032   -263.35776     460.9516    21.605615 
   62500    398.92187   -264.23112    205.04361    21.624843 
   63000    385.22265   -263.92809   -312.67656    21.683441 
   63500    339.80343   -262.74536    913.36038    21.570805 
   64000    345.94543   -263.57935    1506.4117    21.492119 
   64500    358.74861   -262.98827    858.31957    21.572751 
   65000    345.60977   -262.84254    368.99727    21.635944 
   65500    364.38684    -262.8135   -155.27986    21.689563 
   66000    353.86744   -264.01818   -237.88609    21.673144 
   66500    350.82046   -263.98904   -409.55531    21.683827 
   67000    332.75696   -263.92794   -817.16169    21.710673 
   67500    348.20204   -263.50663   -719.66663    21.721509 
   68000    362.69632   -262.96133   -385.30597    21.719126 
   68500    345.62912   -263.83854   -326.39847    21.672024 
   69000    363.20008   -263.24528   -750.31102    21.737908 
   69500     336.3656    -263.0577   -1029.9105    21.756248 
   70000    360.48773   -262.80959   -697.28286    21.746378 
   70500    333.05452   -262.56947   -1022.0711    21.780988 
   71000    323.32071   -262.99324   -68.464998    21.664438 
   71500    356.73815   -263.56887    129.86978    21.625463 
   72000    356.84012   -264.02141    250.53947    21.606827 
   72500    361.55385   -263.70916    30.901924    21.646673 
   73000     342.7613   -262.45763   -89.039302     21.69306 
   73500    354.48826   -262.48378    241.38666    21.643514 
   74000    384.57887   -263.29797    239.43556    21.632356 
   74500    363.32956   -263.75354    425.74241    21.597955 
   75000    362.71133   -263.00909    1193.3261    21.545555 
   75500    337.59617   -263.51337    1299.1348    21.487623 
   76000    358.52936   -264.40833    653.36931    21.563453 
   76500    353.08252   -263.29051    210.47122    21.617845 
   77000    353.17398   -262.60864    258.73395    21.652881 
   77500    317.32933   -263.63056    440.60222    21.586994 
   78000    409.52243   -262.59261    143.54731    21.691998 
   78500    352.09516     -263.261   -149.82898    21.675511 
   79000    371.53462   -263.68321   -596.55331     21.72484 
   79500    336.65576   -262.15881   -838.63554    21.778099 
   80000    344.51107   -262.84146   -387.06738    21.717838 
   80500    356.25007   -262.46082   -834.99823     21.75996 
   81000    357.91839   -262.50827    -1184.676    21.811498 
   81500    342.18994   -263.12437   -1372.0321     21.81234 
   82000    356.87343   -262.42575   -428.36466    21.729691 
   82500    325.18966   -262.75642   -1027.9862    21.771318 
   83000    379.23704   -262.78137   -392.74818    21.727167 
   83500    335.59053   -262.84518   -312.45569    21.694954 
   84000    331.45794   -264.31912    -372.8801    21.654159 
   84500    360.14646   -263.11856   -150.39795     21.67372 
   85000    374.62625   -262.28313   -193.11821    21.707455 
   85500    392.84521    -262.6839   -378.55576    21.726305 
   86000      315.444   -262.26345    304.18548    21.621135 
   86500    322.90514   -262.79341    251.06279    21.619292 
   87000     380.4568   -261.66714    745.48053    21.621609 
   87500    390.06545   -263.16908    751.14476     21.60272 
   88000    359.64473   -261.08098    695.03139    21.651848 
   88500     312.9524   -261.25297   -231.80388    21.694224 
   89000    354.02001   -261.44257    -269.4546     21.73323 
   89500    356.77571   -262.46381   -258.44564    21.705237 
   90000    343.91742   -260.95875    443.07322    21.680488 
   90500    378.16053   -260.65804    939.07058    21.594766 
   91000      336.451   -262.19021    -4.332704    21.674097 
   91500    344.41709   -263.12955    259.84325    21.602992 
   92000    355.84507   -261.66299     249.7087    21.667255 
   92500    383.71989   -260.84349    160.07109    21.703699 
   93000    363.27083   -261.16487   -1118.7596     21.82616 
   93500    346.46947   -262.81204   -889.52566    21.747513 
   94000    363.78399   -263.28907   -567.87332    21.721631 
   94500    336.16886   -263.46312   -588.74098    21.693463 
   95000    366.41554   -263.15758   -117.30143    21.673176 
   95500    371.85052   -262.47238    344.02792    21.636518 
   96000    352.32039   -260.50924    1997.2966    21.501034 
   96500    359.06586   -263.79019    739.39933    21.570431 
   97000    357.28632   -262.57346    253.81727    21.657635 
   97500    332.17082   -262.05742    248.83517    21.637435 
   98000    335.84236   -261.96231    546.65095    21.622861 
   98500     331.4459   -262.05017    695.10885    21.606682 
   99000     332.3773   -262.06677    182.41677    21.666243 
   99500    376.31285   -262.26937   -200.74126    21.712403 
  100000    342.92811   -260.88634   -786.73652    21.802843 
  100500    358.46566   -262.14817   -1266.8092    21.830013 
  101000    310.09175   -262.21647    -238.8127    21.693156 
  101500    364.89514   -262.79998   -114.34924    21.677088 
  102000    342.46059   -262.62137    829.77813    21.568738 
  102500    367.06913   -261.72195    618.92883    21.646078 
  103000    363.69375   -261.29526    702.12977    21.618115 
  103500    351.60548   -262.82006    582.17794    21.599845 
  104000    366.68303   -261.41572    140.36579    21.673916 
  104500    360.43114    -261.7598   -222.26251    21.712548 
  105000    339.70349   -261.91673   -245.71616    21.704465 
  105500    320.82962   -261.02329    -570.5229    21.769159 
  106000    349.96279   -262.27041   -393.52099     21.72678 
  106500     322.7055   -261.76752    463.25608    21.627611 
  107000     338.0544   -262.39285   -60.000853    21.675035 
  107500     345.7505   -262.30446   -192.30453    21.705119 
  108000    389.29107   -261.45512   -292.68506    21.752741 
  108500    329.29628   -261.83276    -407.0852    21.721716 
  109000    348.87477   -261.69236   -54.918827    21.701452 
  109500     346.0878   -263.22567    438.74796    21.612056 
  110000     348.1476   -262.82813    627.91772    21.594401 
  110500    337.08364   -261.15792    111.04568    21.698983 
  111000    350.62529   -262.73352   -117.34778    21.676507 
  111500    354.94751   -261.94953   -732.54925    21.788797 
  112000    348.52825   -262.58673   -961.71067    21.778906 
  112500    328.32065   -262.11374   -762.81332    21.745988 
  113000    351.65006   -262.04183   -373.62482    21.706475 
  113500    354.19144   -260.82765   -194.44743    21.732794 
  114000    358.44568   -262.68109    -333.6579    21.687654 
  114500    343.80385   -261.54217    216.26009    21.666162 
  115000    358.89367   -262.63413    494.54687     21.62246 
  115500    349.72352   -261.68863     705.0284     21.61831 
  116000    359.58795    -261.9937    175.51715    21.674247 
  116500    364.53721   -261.58895    197.42744     21.67361 
  117000    318.99655   -261.01821    592.65228    21.647354 
  117500    350.71338   -263.09658    478.81415    21.600694 
  118000    366.68578   -261.61829    743.68344     21.62849 
  118500    383.88515   -263.32078     763.0875    21.586356 
  119000    368.57504   -262.55676    858.37414    21.580649 
  119500       363.65   -260.18812   -259.72026    21.751776 
  120000    335.21729   -261.25474   -378.15438    21.730037 
  120500    349.96652   -260.95482   -784.52279    21.788097 
  121000    352.24918   -259.62874   -203.05546    21.760589 
  121500    339.64124   -260.26016   -436.61925    21.773122 
  122000    409.90623   -260.96973     444.3431    21.674744 
  122500    333.03685    -258.8257    274.20767    21.706693 
  123000    335.02255   -258.77586     286.6149    21.708355 
  123500    382.58258   -260.13117    656.68924    21.654674 
  124000     385.4241   -261.33725    554.40006    21.666573 
  124500    313.93209   -261.04599    473.03377    21.654528 
  125000    334.97583   -261.26176    95.595079    21.676987 
  125500    397.37094   -260.42946    801.45684    21.609709 
  126000    374.13332   -261.57126    343.89914    21.660359 
  126500    341.49284   -261.51519    184.79474    21.682392 
  127000    314.61341   -260.40263   -391.23159    21.760363 
  127500    348.60659   -260.30271    -837.8851    21.822248 
  128000    315.76213    -259.9234   -1036.9755    21.834564 
  128500    385.22618   -260.14555   -237.81125    21.768092 
  129000    356.11866   -261.00798   -287.57485    21.730905 
  129500     350.8876   -260.90141    91.003898    21.679845 
  130000    354.26522   -262.21706    295.96612    21.643078 
  130500    364.95449    -260.6405     173.6376    21.691083 
  131000    370.67008    -261.7951    810.48232    21.604362 
  131500    341.76929   -261.51007    366.61967    21.641497 
  132000    325.18366   -261.93248   -170.96065    21.687077 
  132500    399.94523   -259.26094    -209.3452    21.791213 
  133000    371.39186   -261.61154    135.26302    21.686806 
  133500    336.37673    -260.6289    250.50405    21.686754 
  134000    330.75523   -262.45466    141.13054    21.651088 
  134500    318.00623   -261.18286    567.95731    21.640232 
  135000    352.44204   -262.80897    245.27906    21.639767 
  135500    370.45531   -262.10167    199.79512    21.671779 
  136000    351.48303   -260.81805   -76.182453    21.738982 
  136500    336.14469   -261.78382   -311.39326    21.725152 
  137000     349.4286   -261.36623   -801.80821    21.781663 
  137500    353.63393   -260.58175   -159.76672     21.76332 
  138000    353.21626   -261.40417    417.73474     21.65635 
  138500    319.13535   -260.10208    498.87713    21.670257 
  139000    326.99869   -259.53234    748.18096    21.650403 
  139500    340.38449   -261.93771    319.19788    21.635923 
  140000     359.4397   -260.85418    517.45161    21.665063 
  140500    396.93082   -262.37014     472.5111    21.646298 
  141000    343.96277   -260.97062    506.03176    21.663191 
  141500    329.31412   -259.91183    81.398998    21.722386 
  142000    352.87588   -261.05449   -559.29308    21.781961 
  142500    336.62521    -259.1286   -499.14479    21.802986 
  143000    367.33072   -260.99745    33.107186    21.703262 
  143500    355.68891   -262.13854    110.44802    21.654442 
  144000    354.67491   -261.02299    206.54234    21.686801 
  144500    363.29725   -260.47716   -911.76838    21.842214 
  145000    352.28991    -260.7578   -728.45545    21.781018 
  145500    364.01722   -259.64132   -609.64897    21.792548 
  146000    327.10589   -259.63566   -239.78827     21.73811 
  146500     342.9717   -260.47734    133.66945    21.680035 
  147000    339.94013   -260.27102    25.777671    21.698384 
  147500    365.42338   -260.01467    180.14217    21.711094 
  148000    335.82687   -260.39507    131.25866    21.705275 
  148500    377.06387   -260.19334   -1268.6182    21.876391 
  149000    315.31323   -260.41655   -753.45675    21.770469 
  149500    356.97294   -259.85788    -46.90099    21.722121 
  150000    317.37521   -259.56551    353.21607    21.666172 
  150500    354.35142    -259.3966   -127.69718    21.733626 
  151000     359.5937   -259.11886   -184.20353    21.747271 
  151500    387.95229   -258.54023   -704.05163    21.825568 
  152000    349.37995   -258.60246   -984.23577    21.842843 
  152500    352.56202   -259.97078   -550.38569    21.788018 
  153000    365.40905   -261.76613    411.94066    21.649566 
  153500    368.16761   -261.19613    373.13897    21.654681 
  154000    325.51999   -259.92733   -126.53721    21.741434 
  154500    320.85016   -261.25004    33.343955    21.695689 
  155000     358.1535   -259.95602   -483.65104    21.782705 
  155500    356.48229   -260.67854   -72.110105    21.708938 
  156000     322.0939   -260.79963   -75.102885    21.686693 
  156500    338.66067   -260.56389    -495.5578    21.765623 
  157000    340.90231   -260.03704   -159.37355    21.747797 
  157500    366.09541   -259.54256    763.61851    21.650111 
  158000    339.56335   -260.70043    569.93126    21.639769 
  158500    346.74245   -261.07576   -209.11799    21.711754 
  159000    390.83031   -259.29202   -135.62667    21.763711 
  159500    341.21551   -259.54192   -773.95959    21.803706 
  160000    308.03658   -258.43812   -1273.0702    21.893588 
  160500    335.21211   -259.42635   -496.61033    21.772915 
  161000    365.62068    -259.5222    46.622428    21.736472 
  161500    370.95299   -258.11206    237.50164    21.764817 
  162000    372.76675   -259.50956    1339.6826    21.570291 
  162500    352.96366   -259.17342    980.64399    21.622155 
  163000    350.60073   -258.28209     542.6779    21.697379 
  163500    378.68258   -259.31885   -361.90257    21.771401 
  164000    311.02848    -257.5569   -576.37629    21.803086 
  164500    343.15118   -259.08875   -107.60336    21.722231 
  165000    351.64969   -258.20084    1013.8057    21.644526 
  165500    368.98298   -259.28803   -768.30103    21.807828 
  166000    361.34863   -256.89239   -417.99884    21.847288 
  166500    321.90304   -259.49464    248.13258    21.667104 
  167000    317.18791   -258.47414    827.95036    21.633389 
  167500    363.81709   -258.25782    433.28327    21.705168 
  168000    349.19036   -257.78345    217.84163    21.745296 
  168500    343.67005   -258.33698    -21.98052     21.74517 
  169000    346.05176   -258.76687   -13.596704    21.738464 
  169500    350.67028   -259.07874    544.73911    21.680073 
  170000    338.22989   -258.51422    608.00912     21.68211 
  170500     347.3434   -259.31347    1085.7746    21.595267 
  171000    369.68349   -257.07382    753.83923    21.684894 
  171500    385.97656    -258.1702    998.88171    21.645764 
  172000    324.88465   -258.07149     695.7639    21.655391 
  172500     353.7369   -259.36826    -480.9387    21.769326 
  173000    321.62425   -258.26321    549.85138    21.671967 
  173500    385.30141   -257.93868   -598.01236    21.828591 
  174000    343.28296   -258.03156   -1033.3694    21.878531 
  174500    357.07823   -258.77527    9.3158923    21.697237 
  175000    361.08235   -259.30676   -305.54468    21.747473 
  175500    337.45205   -258.43719    361.70617    21.710542 
  176000    348.03832   -258.61207    1529.4821    21.563946 
  176500    364.45816   -258.72144    679.73672    21.678508 
  177000    366.21073   -259.73882    396.89958    21.658597 
  177500    333.19069   -258.96969   -240.51291    21.753077 
  178000    364.88031   -259.46253   -125.94561    21.753209 
  178500    354.24482   -258.60543   -90.688625    21.762852 
  179000    371.54444   -258.82582    1132.6441    21.617447 
  179500    362.43697   -257.70255    1160.2589    21.625125 
  180000    365.16651   -256.85657    162.00705    21.747961 
  180500    323.02096   -258.24668   -402.59666    21.797493 
  181000    379.03536   -258.39887   -15.866769    21.757605 
  181500    382.62362   -258.87412    784.91018    21.679559 
  182000    364.46424   -258.31137    -340.3345    21.803529 
  182500    340.84221   -259.54586   -650.47798    21.804228 
  183000    342.36662   -259.33142   -371.43377    21.764206 
  183500    347.10608   -260.40883   -773.52673    21.768112 
  184000    343.60868   -260.20977   -774.79514    21.793856 
  184500    342.82953   -260.00586   -1115.8173    21.847009 
  185000    365.72755   -260.38982   -634.20943    21.799161 
  185500    370.28517   -259.97799     -292.283    21.769401 
  186000    337.65722   -260.93083   -668.66427    21.769975 
  186500    312.18061   -260.12722   -277.43952    21.743784 
  187000    333.22581   -259.39507     382.4164    21.673662 
  187500    375.63039    -259.5371    535.21543    21.682158 
  188000     319.9938   -259.18059     350.5924    21.681432 
  188500    383.90076   -259.23789    224.61831    21.718555 
  189000    342.42332   -258.97735    859.59482      21.6376 
  189500    333.02198   -258.88016    1229.4415    21.580147 
  190000    370.84483   -258.14776    435.36694    21.735206 
  190500    330.37585     -260.126     593.8249    21.645691 
  191000    333.83163   -259.75693    437.50514    21.653335 
  191500    338.89485   -258.78062   -86.293232    21.737359 
  192000    334.79752    -258.5489     1121.517    21.621946 
  192500    346.28473   -259.47865    887.31135    21.625065 
  193000    363.59942   -260.82915   -53.934698    21.717117 
  193500    341.31944   -261.50731   -452.17947    21.737028 
  194000    328.99482   -259.16304   -79.312134    21.725112 
  194500    367.24532   -259.60227    776.92911    21.627843 
  195000    383.63295   -258.46774    223.27256    21.718686 
  195500    345.22393   -259.72381   -263.85586    21.743326 
  196000    338.86553   -258.02729   -135.35512    21.778653 
  196500    350.08509   -259.41371    201.01868    21.690997 
  197000     375.1243   -258.71322    493.74491    21.701549 
  197500    343.08955   -258.49313   -124.31647     21.77481 
  198000    329.17067   -259.42237    -1052.311     21.83291 
  198500    334.04019   -258.91179   -707.81329    21.788372 
  199000    336.58966   -258.97619    336.30446    21.709815 
  199500    358.48675   -259.66759    395.39945    21.698994 
  200000    347.66208   -259.76951    1162.0242    21.583419 
  200500    342.23598    -258.5712     1075.715     21.61727 
  201000    363.24791   -258.54175   -161.50806    21.767765 
  201500     341.6435    -257.1795   -406.55749    21.817671 
  202000     358.5522   -256.76601   -22.917408    21.791282 
  202500    353.29187   -258.28397   -295.18448    21.761345 
  203000    340.63508   -257.73729   -1096.1682    21.895908 
  203500    360.90516   -258.85128   -618.01733    21.790066 
  204000    351.47498   -257.81557    237.81579     21.72906 
  204500    346.86955   -257.39381   -284.88603    21.803524 
  205000    347.51634   -257.76685   -470.85483    21.823919 
  205500    337.27368   -256.60691   -367.39893    21.831796 
  206000    323.38253   -259.44447   -155.58123    21.719599 
  206500    372.16154   -259.02347   -463.41384    21.776839 
  207000    380.31293   -258.21223    212.40173    21.741432 
  207500     348.8034   -260.98631    585.81659    21.624844 
  208000    317.19092   -260.39383    389.11218    21.652499 
  208500    343.50992   -259.83165   -503.81194    21.781838 
  209000    355.19562   -260.21862   -1046.5335    21.812226 
  209500    344.27178   -258.47504   -303.82448    21.773127 
  210000    348.76465   -259.72749   -968.97322     21.85066 
  210500    348.32387   -259.74173   -326.27995    21.773886 
  211000    336.07013   -261.28623   -47.843229    21.677488 
  211500    325.36682    -260.8422    138.90945    21.668681 
  212000    319.03869   -260.67443   -896.95897    21.793896 
  212500    319.42818   -259.39962   -1147.8491    21.861068 
  213000    349.21854    -261.0444   -216.91796    21.724971 
  213500    369.38036   -259.67052   -493.66202      21.8063 
  214000    339.78538   -259.79498   -572.86461    21.761164 
  214500    338.23741   -258.59668   -462.06589    21.788795 
  215000     329.1228   -259.20231    506.14374    21.676284 
  215500     337.5701   -260.17231    650.71938    21.646907 
  216000    330.22593     -258.879    129.72373    21.730632 
  216500    337.23393   -260.99746    463.87316    21.627756 
  217000    351.09481   -260.26781    1310.1326    21.582907 
  217500     327.9504   -259.82313    338.41045    21.669845 
  218000    331.88924    -259.3027   -45.557491    21.735045 
  218500    340.95691   -259.19224    -310.2832    21.762107 
  219000    366.49819    -259.2635    -684.7036    21.823151 
  219500    350.38259   -260.74889    207.20006    21.670052 
  220000    393.14698   -259.44257    973.44206    21.636698 
  220500    394.94713   -260.19926    37.692606    21.736477 
  221000     352.9777   -258.69025   -331.88497    21.820041 
  221500    325.07076   -260.28218   -649.34616    21.785689 
  222000    325.12258   -259.83466   -743.74324    21.796354 
  222500    353.41365   -258.41229     126.2354    21.756694 
  223000    315.82124   -259.30495    196.07805     21.70196 
  223500     352.0338    -260.5808    1119.7994    21.586642 
  224000     374.1681   -260.09285    710.71227    21.646095 
  224500    350.00337   -258.89018    319.45295    21.692682 
  225000    318.55729      -259.52     559.4753    21.662982 
  225500    355.81554   -258.98643    708.95685    21.666403 
  226000    356.16965   -258.27829    415.45933    21.697772 
  226500    324.71069   -260.03412     115.7627    21.691387 
  227000    343.55631   -259.78647   -172.63935    21.736411 
  227500    353.44737    -259.8358   -485.85624    21.783629 
  228000    353.74157   -259.42157   -934.65872    21.845485 
  228500    336.65621   -259.97538   -701.72577    21.782491 
  229000    362.86001   -260.14198   -563.08152    21.767963 
  229500     329.3793   -259.57038   -766.02044    21.798289 
  230000     350.1381   -259.08809   -868.38215    21.816744 
  230500     342.8346   -259.73364    121.07841    21.689391 
  231000    348.25139    -259.3701    501.12485    21.678927 
  231500    324.24447   -260.35092    1097.9262    21.580273 
  232000    379.61516   -259.43885    387.40156    21.702687 
  232500    340.58002   -258.50408    377.62033    21.714752 
  233000    377.66368   -261.36582    -146.9574    21.716232 
  233500     347.4809   -260.73766    735.08407    21.622544 
  234000    342.84426   -260.58188     511.6887     21.65209 
  234500    390.20552   -258.98267    460.45267    21.725087 
  235000    376.03297   -260.61553    261.25849    21.683314 
  235500    342.35016   -262.00152   -12.389323    21.667291 
  236000    356.37253   -260.15685   -91.680336    21.741338 
  236500    357.76006   -260.15751   -387.91878    21.770715 
  237000    356.98299   -260.31324    -1032.805    21.830294 
  237500    365.80348   -260.08431    -186.7701    21.738732 
  238000    359.01379    -260.6302    379.70156    21.661615 
  238500     348.9511   -259.80523     807.2768    21.629121 
  239000    364.93304   -259.37037    197.55341    21.701424 
  239500    345.59242   -260.23721   -355.00311    21.736891 
  240000    327.70562   -259.77272    455.10558    21.689694 
  240500    346.51497   -259.61438    235.63716     21.69963 
  241000    367.87069   -259.86064    1302.6531    21.588381 
  241500     329.9193   -260.19596    1073.9174    21.585688 
  242000    364.76821   -260.39528    47.488281    21.725492 
  242500    327.95786   -260.26934     297.3202    21.676429 
  243000    328.84912   -259.81579   -251.52913    21.746786 
  243500    363.20513   -258.44001   -1341.6827    21.924393 
  244000    330.22963   -260.03697   -962.49354    21.819492 
  244500    342.34515   -259.58925   -311.46953    21.759842 
  245000    341.83143   -259.20024   -449.01385    21.766193 
  245500     319.9145   -260.26989   -218.18241    21.724511 
  246000    357.64705   -258.94934    34.575539    21.730182 
  246500    318.61748   -260.38521    436.97652    21.643107 
  247000     332.7635   -259.96228    281.58463    21.686534 
  247500    357.22428   -260.34547    34.821047    21.705375 
  248000    339.60028    -259.6167    571.29764    21.671239 
  248500    366.27687    -259.8832    -42.24948    21.743569 
  249000    336.22212   -259.42539    260.10232    21.712747 
  249500    365.18018   -260.47593    31.281145    21.679709 
  250000    345.49102   -259.04184    168.49502    21.719487 
  250500    383.09135   -259.08315    229.45098    21.726256 
  251000    312.52289   -258.83133   -504.60977     21.77742 
  251500    349.05218   -258.91145   -999.98142     21.84662 
  252000    367.56852   -259.18684   -94.512683     21.74829 
  252500     375.6927   -260.69371    201.82325    21.690992 
  253000     376.0641   -260.80786    827.53313    21.637106 
  253500    356.24785   -259.63678    483.53097    21.670499 
  254000     354.0303   -259.87058    -412.1683    21.764095 
  254500    343.93369   -259.26789   -500.23161    21.781937 
  255000    315.68469   -259.66806   -141.68139    21.748298 
  255500    326.58503    -259.1563    -606.1053    21.810627 
  256000    355.81566   -260.52208   -1183.2351    21.839795 
  256500     353.0296   -259.31726   -181.91801    21.773443 
  257000    329.21438    -260.2071   -4.3710578    21.707567 
  257500    322.39401   -261.35244    641.51028    21.600232 
  258000    375.09358   -260.05599    783.23367    21.654687 
  258500    345.11671   -260.14976    646.21876    21.653141 
  259000    370.43839   -260.21487   -412.38101    21.788162 
  259500    357.24118   -259.57316   -175.89251    21.776118 
  260000    325.31272   -260.88126   -155.61232    21.724756 
  260500    347.62583   -259.57936   -100.02467    21.752332 
  261000    382.21502   -259.12062   -473.51687    21.833661 
  261500    332.87051   -261.73177    266.26733    21.632394 
  262000    337.39574   -260.45371    709.87825    21.606941 
  262500    327.05781   -260.10973    71.328234    21.704709 
  263000    342.73421   -259.67315   -871.18676    21.820394 
  263500    363.76001   -261.02617   -664.79786    21.787843 
  264000    341.46358   -259.76419   -1124.6263    21.851911 
  264500    344.60026   -260.45205   -608.50266    21.784322 
  265000    332.19113   -261.52886   -864.61761    21.786613 
  265500    337.22193   -259.70102   -149.60411    21.741302 
  266000    358.45303   -261.45508    -177.9352    21.695865 
  266500    367.90288   -259.77798    49.128265    21.751792 
  267000    331.69441   -260.65359    510.17036    21.646881 
  267500    347.69605   -260.82499    419.64998    21.668583 
  268000    357.72109   -261.20039    914.20104    21.620575 
  268500    368.23097   -259.40263    762.61502    21.664857 
  269000    357.52329   -260.90282    936.04973    21.607198 
  269500    324.80249   -260.92746    69.060337    21.710756 
  270000    336.46382    -260.7599   -356.15674    21.752204 
  270500    347.15142   -260.70853   -318.95712    21.739259 
  271000    335.59649   -259.86652    558.69104    21.638197 
  271500    328.84562    -259.5458    1305.4562    21.580721 
  272000    369.95108   -259.74319    448.98241    21.686805 
  272500     328.7893    -260.1062    286.01261    21.681459 
  273000    358.97183   -259.24823   -4.9143574     21.73601 
  273500    389.54906   -259.42746    79.323178    21.741036 
  274000    337.60383   -258.51124   -346.92088    21.780972 
  274500    340.02654   -257.16206   -1254.2349    21.950471 
  275000    366.40065   -260.26477   -688.77542    21.792207 
  275500    356.72189   -259.12787    605.71041    21.673427 
  276000     350.0596   -258.61063    501.92813    21.692305 
  276500     338.0887   -259.23602    232.65959    21.710132 
  277000    351.40081   -258.07203    349.01225    21.725716 
  277500    344.07516   -258.26701    370.26845    21.714741 
  278000    330.75966    -257.9234    170.67196    21.710312 
  278500    378.27479   -259.56411    192.30569    21.679044 
  279000    325.88938    -256.9136    -97.54392    21.786586 
  279500    339.36877   -257.45923   -153.12643     21.79312 
  280000      378.988     -260.157    157.06687    21.690849 
  280500    351.75786   -257.94466    432.62467    21.711222 
  281000    356.14414   -257.62345    207.93889    21.754115 
  281500    339.13404   -258.75141    459.60934    21.682372 
  282000    351.53641   -257.80883    288.55153    21.737646 
  282500    361.82438   -258.13981    381.15421    21.719356 
  283000    365.74798    -259.2512    1451.7391    21.578855 
  283500    360.59117    -259.2415    435.89369    21.687583 
  284000    335.66468   -260.15263   -485.05934    21.757825 
  284500    333.53966   -258.97727   -940.80982    21.852592 
  285000    346.51539   -259.34674    -789.3784    21.811594 
  285500    345.80699   -258.47501   -241.83358     21.76347 
  286000    343.29009   -258.25057     427.7207    21.704554 
  286500    366.88735    -257.3354    594.02229    21.725379 
  287000    348.81408   -258.27056    700.80138    21.670186 
  287500    346.39303     -258.257    223.89546    21.724042 
  288000    345.12243   -258.51021    199.40952    21.724251 
  288500    325.40309   -257.82591   -22.630908     21.76154 
  289000    338.27846   -258.73503   -574.48551     21.77755 
  289500    354.92357   -257.67628   -427.16182    21.840319 
  290000    363.59094   -257.42798    111.56047    21.754851 
  290500    359.16583   -258.88404   -129.13778    21.741566 
  291000    357.37908    -258.9081    457.12501    21.695967 
  291500    326.55015   -258.56325   -61.591398    21.743927 
  292000    344.89473   -259.53982    -381.5866    21.760717 
  292500    352.97544   -257.41125    -1110.047    21.894031 
  293000    342.01082   -257.92899   -575.63924    21.822818 
  293500    354.77199   -257.29037    174.15031    21.787544 
  294000    340.12568   -257.48792    118.53423    21.766139 
  294500    339.05822   -257.99886    63.727889    21.762887 
  295000    371.62637    -258.7638    224.22952    21.734119 
  295500    355.22846   -258.42405   -497.02402    21.829311 
  296000    366.83751   -256.34281    -575.4712    21.888863 
  296500    328.33188   -258.64538     267.8995    21.706109 
  297000    358.57121   -257.96421    155.71332     21.75386 
  297500    330.54552   -257.85063   -250.67457    21.801981 
  298000    351.76649   -258.05121    307.81868    21.729849 
  298500    347.12851   -258.27392   -139.58375    21.786177 
  299000    339.69603   -257.53631   -169.66898    21.804679 
  299500    330.12795   -257.62833    866.53392    21.691191 
  300000    361.81194   -258.77794    431.97576    21.699809 
  300500    363.04317   -257.40701   -1202.1357    21.933863 
  301000    333.30596   -257.34332   -545.83485    21.838756 
  301500    399.35768    -257.2207   -955.94931    21.944221 
  302000    352.53291   -258.11859   -152.88771    21.791956 
  302500     382.9596   -257.13367   -379.71007    21.837961 
  303000    320.98946   -257.63705   -311.06931    21.813831 
  303500    371.60575   -257.65025   -161.44891    21.790283 
  304000    361.78136   -256.75018   -293.66878    21.869203 
  304500     353.1558   -258.51457    -946.9944     21.86968 
  305000    327.22053   -259.66513   -361.66676    21.773522 
  305500    390.80154   -258.45105   -19.854374    21.753383 
  306000    357.28395   -257.16849   -655.83458     21.88746 
  306500    373.16553   -256.90089    159.67877    21.790427 
  307000    359.23118   -258.75135    324.67222    21.698576 
  307500    386.12318   -257.25059    1019.7591    21.677985 
  308000    333.82991   -258.77329    469.37475    21.694569 
  308500    353.97421   -256.70105   -162.52372    21.816745 
  309000    303.79122   -259.21517   -253.16057    21.738547 
  309500    351.94165   -259.75531   -250.81379    21.718686 
  310000    352.86013   -258.41317    576.94863    21.675764 
  310500    347.58886   -257.22105   -145.46608     21.80367 
  311000    360.80741   -257.40504   -1003.4078    21.888552 
  311500    385.36964    -257.4341    -24.05431    21.801148 
  312000    360.63775   -257.47041    163.90847    21.768064 
  312500    329.81086   -259.26369   -122.84182    21.726242 
  313000     352.9735   -258.37052    108.72897    21.733986 
  313500    346.52185    -258.1634     262.0728    21.717739 
  314000    332.73466    -259.9138    -332.4886    21.728568 
  314500    356.57441   -257.76069   -122.49236     21.78841 
  315000    370.96878   -258.94741    924.87679    21.651509 
  315500     360.7036   -258.53354    1535.6949    21.592228 
  316000    374.79835   -256.80506    368.66539    21.784966 
  316500    356.09961   -258.46979    -638.5568    21.778641 
  317000    343.25102   -257.93896   -137.58902    21.794586 
  317500    329.45781   -258.75717    317.53166     21.71229 
  318000    362.86079   -258.21868    831.80663    21.674912 
  318500    354.85714   -257.02512    377.57371    21.740444 
  319000    361.23812   -257.60647   -140.10794    21.803174 
  319500    346.44709    -257.1532   -211.89837    21.824952 
  320000    338.17769   -256.44587    122.67425    21.790708 
  320500    379.02269   -258.48512    470.70895    21.691077 
  321000    360.42348   -258.19431    643.99401    21.673147 
  321500    371.81981   -257.27357   -386.65701    21.816171 
  322000    315.62425   -258.06639   -38.735921    21.737747 
  322500    355.51978   -258.06658   -460.50213     21.78644 
  323000    348.39102   -258.45422   -375.01751    21.782533 
  323500    351.21377   -258.21047   -248.89001    21.781987 
  324000     369.3894   -257.59414   -1078.5665    21.892583 
  324500    340.20841   -256.23648   -466.58312    21.863597 
  325000    363.48912     -257.123    192.20768     21.78155 
  325500    351.47272   -257.73441   -56.470127    21.804628 
  326000    322.69513   -258.07672     558.6927    21.701644 
  326500    350.46526   -257.67453    66.116536    21.764186 
  327000    335.46559   -257.55707    624.52874    21.690103 
  327500    345.98261   -258.86214   -556.97551    21.781334 
  328000    343.04207   -256.11681   -359.77584    21.847434 
  328500    342.64373   -257.20481   -910.51269    21.878818 
  329000    370.32588   -258.11999   -271.70688    21.794357 
  329500    337.35907   -257.70964    -380.1621    21.801682 
  330000    323.96431   -257.01153    1006.2355    21.674224 
  330500     330.5292   -257.18534    1089.9008     21.64424 
  331000    326.66527   -258.03066    478.33245     21.69486 
  331500    381.47099    -258.1416     80.62563    21.767046 
  332000     328.5834   -259.16603   -321.91906    21.742181 
  332500    352.77999   -258.61527   -390.80143     21.77177 
  333000    368.59087   -257.94022    -188.7239     21.82177 
  333500    362.39309   -257.54474   -38.182868    21.803143 
  334000    324.73614   -258.23649   -341.99213    21.767777 
  334500    364.39269   -258.93292   -869.34322    21.844843 
  335000    349.53246   -257.61238    224.94495    21.763509 
  335500    339.28562    -258.4586     131.5749    21.726884 
  336000    329.18775   -259.13894    657.33999    21.632787 
  336500    324.07424   -258.81748    850.53218    21.620086 
  337000    331.80858   -257.45508    679.73305    21.680661 
  337500    346.16639   -257.95948    142.41623     21.72991 
  338000    361.66057   -257.82529   -458.53825    21.832271 
  338500    355.71451   -257.94993   -725.83791    21.860391 
  339000    328.63971   -257.52048   -836.94501    21.871681 
  339500    354.42629   -257.95694   0.95716928    21.774318 
  340000    341.44731   -258.46688    -118.7466    21.744301 
  340500    380.87027   -256.89512   -449.16108    21.867987 
  341000    316.97056   -259.76902   -236.21337    21.707796 
  341500    325.34723   -259.14083    516.83608     21.66722 
  342000    358.56725   -258.38221    62.244125    21.741935 
  342500    339.32511   -258.52714   -1056.8415    21.858299 
  343000    350.60001   -258.61077   -516.85536    21.788346 
  343500    344.66973    -259.0437    614.50651    21.660296 
  344000    333.72356   -259.38122    800.81287    21.619301 
  344500    345.84379   -257.11563   -1.0753459    21.771792 
  345000    346.56448   -258.38878    73.934064    21.725193 
  345500    323.00361   -258.20641   -816.84665    21.847462 
  346000    355.59641   -258.66466    74.185423    21.730394 
  346500    375.64877   -258.37517   -197.99665    21.787811 
  347000    326.87112   -257.31246    125.92343    21.751906 
  347500    323.20308    -257.6431   -82.107239    21.772718 
  348000     337.6935   -256.98286   -1057.7264    21.894684 
  348500    386.08371   -257.67717   -114.36921    21.808503 
  349000    352.10251   -258.44026    343.18244    21.696637 
  349500     359.7945   -257.55371    45.477957    21.739771 
  350000    345.11804   -256.83451   -142.32266    21.811694 
  350500    357.86318   -258.25061   -341.47037    21.783205 
  351000    330.10503   -258.24118   -255.28821    21.776139 
  351500    313.77087   -258.35893    -507.7577    21.778983 
  352000     343.8418   -258.20054   -654.90303    21.827879 
  352500    333.74428   -258.29587   -196.51544    21.748374 
  353000    328.81049   -257.86945   -32.297317     21.75734 
  353500    323.83949   -258.12867    115.26406    21.729974 
  354000    362.43481   -258.29267    413.21657    21.710067 
  354500    389.33711   -258.84647    126.62375    21.749198 
  355000    345.95186   -257.74466    809.28827     21.69579 
  355500    372.42294   -259.15957    296.71504    21.713054 
  356000    344.89113   -258.36064    322.67837    21.703849 
  356500    351.91048   -257.22504   -309.77335     21.79298 
  357000    344.33134   -258.40433    37.516437    21.719122 
  357500    338.49838   -259.95585   -125.79256    21.715673 
  358000    376.61624   -258.32945   -854.85889      21.8659 
  358500    351.28058   -261.44356   -1208.6992    21.816075 
  359000    339.28259    -259.9805   -1093.2714    21.860489 
  359500    348.05289    -260.7091   -543.22205    21.771423 
  360000    308.20528   -260.87085   -28.238808    21.667902 
  360500    328.88702   -260.16874   -236.72086     21.73442 
  361000     356.2645    -260.8083   -956.17526     21.82687 
  361500     340.4954   -262.63392   -1016.6124    21.774213 
  362000    368.82833    -261.6659   -882.86385    21.801445 
  362500    335.68553   -262.68449   -687.25031    21.742385 
  363000    343.22951   -262.39511   -849.45604     21.75358 
  363500    361.59579   -261.51938   -525.17966    21.754117 
  364000    349.70384   -261.44119    29.362404    21.695998 
  364500    336.24079   -263.78573    104.43625    21.621277 
  365000    327.35636    -266.0543    348.50492     21.52423 
  365500    359.63477   -265.91687     875.1979    21.486263 
  366000     352.6548   -265.58518    613.70496    21.520197 
  366500    342.11696   -265.90067    918.41046    21.476441 
  367000    380.50659    -266.2337    291.25167    21.556313 
  367500    350.36254   -265.65779    345.90427     21.54596 
  368000    349.81071   -266.51544    75.680288    21.571029 
  368500    370.69599   -266.73385    435.68297    21.526073 
  369000     385.4977   -267.16402    1134.1255    21.441406 
  369500      322.973   -266.66334    882.95752    21.459474 
  370000     352.2959    -265.3915    44.495038    21.581098 
  370500    321.55328   -265.28111     872.4635    21.493436 
  371000    346.56934   -266.05132    383.32667    21.535829 
  371500    364.78935   -266.52827     274.8364    21.533787 
  372000    323.73386   -265.74087    305.13648    21.546438 
  372500    375.04883   -265.76005   -106.69838    21.608379 
  373000    329.94959   -265.62049   -49.558964    21.576476 
  373500    361.20217   -266.40506   -67.305865     21.58102 
  374000    337.94874   -265.18563   -44.489925    21.599665 
  374500    359.58114   -266.76343   -205.39589    21.573523 
  375000    331.46972   -265.83894   -236.98441    21.597686 
  375500    355.78935   -266.18636    -733.8098    21.644101 
  376000    329.55987   -266.42886   -159.92207    21.569095 
  376500    313.24944   -265.56566    165.46594    21.563094 
  377000    366.14583   -266.13431    945.42755    21.486107 
  377500    382.10661   -266.20899    264.09468    21.557093 
  378000    295.29151   -266.21478   -19.162384    21.554531 
  378500    332.91268   -266.17498   -392.43817    21.609366 
  379000    349.09887   -264.84627   -808.23116    21.679549 
  379500     339.5116   -265.29197   -295.66704    21.616267 
  380000    346.78585   -266.63053    18.787076    21.561261 
  380500    356.43913   -266.15854   -93.117323     21.58003 
  381000    366.02431   -266.33695   -8.3179372     21.56803 
  381500    344.27839   -265.95418    1.0529787     21.57118 
  382000    349.97712   -266.14912     367.7477    21.538317 
  382500    364.11539   -266.27555    422.20355    21.528189 
  383000     347.8399   -266.67302    64.808331    21.545383 
  383500    361.90059   -265.30539    223.14091    21.566004 
  384000    366.74992   -265.64607    204.27596    21.571425 
  384500    366.50425   -265.06489    367.46636    21.573589 
  385000    372.87056    -264.6993     166.7089    21.612331 
  385500    359.74489   -265.22567    334.64376    21.566701 
  386000    324.12288   -262.58478      161.403    21.643094 
  386500    335.75589   -262.62026   -122.60628     21.67739 
  387000    358.39696   -264.37558    107.57382    21.609052 
  387500    356.57583   -263.35959     276.7569     21.63086 
  388000    354.26162   -262.47304    320.47525    21.661159 
  388500    329.51581   -264.41917   -205.28569    21.638622 
  389000    366.77311   -263.64166    361.59061    21.618341 
  389500    339.21226   -262.70215   -205.16225    21.693865 
  390000    373.74154   -261.61531    1115.6476    21.603285 
  390500    362.87525   -262.62609    553.28883    21.609555 
  391000    333.19287   -263.55714    321.50223    21.597421 
  391500     342.1456    -262.4029    80.934829    21.658226 
  392000      340.371   -264.10196   -353.08705    21.662585 
  392500    338.37612   -265.85344   -965.63187    21.674431 
  393000    337.25547   -266.17485   -971.72247    21.667603 
  393500    365.57377    -264.5623   -582.17935    21.689892 
  394000    329.12893   -266.19592    -364.3621      21.6025 
  394500    319.69521    -264.7848    342.65693    21.544418 
  395000    351.72287   -266.73427    813.14871    21.469329 
  395500    365.21758   -266.44892    242.86175    21.543839 
  396000    346.79796    -266.3021    43.026341    21.567452 
  396500    359.69711    -266.2388   -338.83169    21.613514 
  397000    320.03963   -266.00679   -145.90368    21.582471 
  397500     315.3065   -266.25022   -227.05508    21.583777 
  398000    345.55565   -265.82887   -1007.9531    21.687142 
  398500    327.06042   -265.34651   -1015.8512    21.686727 
  399000    327.76528   -266.17718   -1198.4401    21.690626 
  399500    345.95703   -264.41812   -445.84249    21.678569 
  400000    343.68943    -264.4506    39.854493    21.618698 
  400500    351.49087   -266.72118   -740.73736     21.62794 
  401000    347.79173   -266.13105   -1030.6067    21.678364 
  401500     357.5747   -264.59349    -398.6677    21.665403 
  402000    359.77974   -266.22746   -144.23582     21.58767 
  402500    371.02238   -265.68597   -126.77336    21.602208 
  403000    342.75891   -265.54646   -859.32035    21.687096 
  403500    357.70955   -266.21532   -480.37622    21.625615 
  404000    348.47649   -265.87665   -14.646013    21.592873 
  404500    343.77429   -266.50119    189.89074    21.544156 
  405000     360.2343   -266.39247   -227.68757    21.597791 
  405500    357.56515   -266.59953    10.497613     21.56814 
  406000     297.8253   -265.31211    25.537864     21.57413 
  406500    343.36341   -264.34358    81.848183    21.602478 
  407000     340.2395   -266.47682   -342.76755    21.588264 
  407500    350.18812   -266.74204   -79.305334     21.56439 
  408000    341.57849   -266.46599    144.05555    21.551447 
  408500    339.95108   -266.42228    427.00333    21.518919 
  409000    353.82476   -266.79377   -281.87723     21.58453 
  409500    332.13474   -266.47218   -384.39262    21.601746 
  410000    306.79039    -267.1614   -762.72267    21.613184 
  410500    355.05155   -265.98585    -559.2819    21.631431 
  411000    349.72324   -263.29554   -490.33656    21.723135 
  411500    322.27784   -262.84796   -227.16597    21.688224 
  412000    365.70579   -263.35621   -299.54104    21.688618 
  412500    343.05971   -264.02091    119.13908    21.617277 
  413000    355.05325   -266.19689    85.869647    21.571064 
  413500    340.84339   -264.80793    118.94026    21.590187 
  414000    337.15853   -266.22617    784.40104    21.489162 
  414500    342.15909   -266.61101    338.94342    21.535118 
  415000    383.06391    -266.5485    340.43496    21.542285 
  415500     363.0228    -265.0664     357.1258    21.573743 
  416000    356.70145   -266.98821    1192.7927    21.439079 
  416500    353.44593   -265.82168    1133.1006    21.468532 
  417000    376.31677   -265.55185    257.86187    21.578158 
  417500    344.64208   -265.62971    305.90088    21.555141 
  418000    348.46258   -264.96175    362.29137    21.566388 
  418500    341.72868   -265.55875    387.89981    21.535095 
  419000    384.83523   -266.42118    133.03907    21.565889 
  419500    339.14109   -264.82503   -435.33002    21.650698 
  420000    342.50884   -266.12809   -522.46388    21.624578 
  420500     335.4249   -265.13081   -376.15281    21.646254 
  421000    354.79607    -265.3491   -1119.3216    21.705461 
  421500     362.0216   -261.68832   -847.12987    21.820908 
  422000    370.21287   -264.12942   -591.50637     21.70527 
  422500     367.2077   -261.83703    49.508696    21.701959 
  423000     348.1784   -260.59249    5.9477204    21.720884 
  423500    325.41879   -263.02654    88.807118    21.648238 
  424000    390.92172   -266.03594   -225.74168    21.608607 
  424500    341.41361   -266.11091    -274.1611    21.601966 
  425000    351.93096   -265.98189   -634.61405    21.655568 
  425500     353.3933   -265.70505   -1029.8504    21.693629 
  426000    357.32654   -262.51893   -827.40482    21.782963 
  426500    323.39095    -261.7921   -738.69331    21.764838 
  427000    346.62533   -263.52255   -331.72407    21.671244 
  427500     325.8805   -265.32582   -360.89943     21.62624 
  428000    320.27565    -265.2663    74.885558    21.570398 
  428500    328.45308   -264.81768    191.93519    21.589247 
  429000    361.74699   -264.66089   -134.06057    21.629736 
  429500     342.8836   -262.02107     -396.112     21.72877 
  430000    366.66656   -262.50209   -287.87423    21.702135 
  430500    347.79582   -262.04269   -670.52209    21.758122 
  431000    357.22679   -262.29649   -702.34962    21.746758 
  431500    310.55024   -260.91534    -449.9704     21.73726 
  432000     312.9884    -260.3952   -810.57007    21.809937 
  432500    355.82756   -263.18351    -418.2635    21.714591 
  433000    328.14221   -261.67846   -520.01185     21.74521 
  433500    336.74473    -262.6067   -200.79286    21.685953 
  434000    366.05587    -262.7119    506.26039    21.610203 
  434500    360.15878   -263.60623    346.82324    21.594389 
  435000    359.66069   -262.97975    330.13667    21.635832 
  435500    339.73549   -262.03014    498.22159    21.618939 
  436000    352.88035    -263.5005     514.4709     21.58622 
  436500    385.18839   -260.99055   -212.56451    21.737211 
  437000    357.50077   -260.75561   -336.18838    21.742136 
  437500    378.41968   -261.79851   -861.23433    21.800647 
  438000    323.89313   -262.50528   -406.03066    21.700285 
  438500    338.34902   -262.99531    -440.6615    21.694023 
  439000     344.2446   -262.21601   -549.83866     21.75343 
  439500    322.54139   -262.10717   -360.64647    21.712925 
  440000    353.11397    -260.6529   -104.53791    21.726699 
  440500    333.93526   -263.62311    666.01657    21.573536 
  441000    355.65486   -263.77972    201.29092    21.625947 
  441500    343.07313   -262.56305    107.20867    21.667171 
  442000    354.51957   -262.78525   -503.03777    21.727241 
  442500    316.23472   -261.40992   -4.5111174    21.688181 
  443000    333.28418   -263.01751    102.01008    21.642943 
  443500    363.47935   -261.22638    1468.4421     21.53751 
  444000    355.50083   -262.20235    1024.3769    21.556427 
  444500    374.13157   -261.90642    1.8810572    21.686367 
  445000    323.23104   -260.95491    413.10754    21.667397 
  445500    370.46118   -262.03271   -213.31331    21.725657 
  446000    328.79144   -263.28396    339.37131    21.616369 
  446500    328.29416    -262.7085    532.83422    21.602933 
  447000    362.48653    -263.3125    375.05531    21.615074 
  447500    347.83339   -262.74352    915.26845    21.552747 
  448000    371.26829    -261.7875    1695.2239    21.516086 
  448500    345.59866   -261.30621    777.90487    21.605722 
  449000    396.06808   -262.27828    802.72748    21.601763 
  449500    350.47178   -262.63991   -136.14908    21.679042 
  450000     340.9363   -261.84172   -3.1480857    21.695135 
  450500    332.50873   -261.66337    78.571383    21.678587 
  451000    355.98925   -260.23415     136.8735    21.722032 
  451500    370.18298   -263.75611    381.88687    21.619729 
  452000    353.03782   -262.40167    248.42462    21.654552 
  452500    337.84393   -262.27081   -46.828347    21.664103 
  453000    345.89276   -261.04944   0.73309721    21.706272 
  453500    339.50154   -262.23543   -1144.8427     21.81261 
  454000    339.19586   -263.82982   -325.55627    21.681291 
  454500    348.44808   -262.16877   -37.463934    21.679326 
  455000    362.07493   -262.02688   -65.535466    21.709892 
  455500    339.23806   -263.26691   -348.05553    21.707068 
  456000    316.45318    -261.9957   -723.19769    21.752101 
  456500    337.10537   -262.85931   -241.01745    21.677146 
  457000    320.69804   -263.24999    136.30454    21.627382 
  457500    323.34734   -263.08897   -310.35985     21.67295 
  458000    345.26385   -262.82784   -624.78766    21.731073 
  458500    323.21842   -261.49999   -325.56114    21.724997 
  459000    371.69609   -260.94745   -252.37566    21.749765 
  459500    339.03648   -261.60377   -402.91557    21.745803 
  460000    344.95688   -260.21319   -344.52175    21.759596 
  460500     319.8851   -261.45296   -367.50203     21.73036 
  461000    393.49233    -261.0892    472.82079    21.664276 
  461500    363.77879   -260.52267    545.80403    21.671736 
  462000    385.40955   -262.16711    361.56614    21.654397 
  462500     356.0657   -263.44099     14.10328     21.64008 
  463000    336.83783   -261.96417    376.30432    21.636079 
  463500    357.62582   -261.78305    -284.1716    21.717685 
  464000    359.04395   -261.57077    216.14021    21.678857 
  464500    321.55429   -260.22844    269.00511    21.687167 
  465000    359.82754   -259.78914    346.51577    21.700804 
  465500    375.15045   -263.31878    167.32787    21.649231 
  466000    337.80281   -261.85886   -238.31875    21.711102 
  466500    344.07264   -262.79592   -1128.8015     21.77505 
  467000    361.48258   -261.12029   -1440.5789    21.857128 
  467500    364.47911   -261.73434   -659.54953     21.75432 
  468000    319.27972   -261.72717   -252.86146     21.69748 
  468500    326.94167   -261.98611   -526.29772    21.731286 
  469000    348.02646   -263.25005   -68.961557    21.670018 
  469500     330.2197   -261.63143    235.92651    21.653158 
  470000    321.11608   -263.00417    71.219011    21.635756 
  470500    325.15489   -261.67572   -155.42212    21.704564 
  471000    366.09496   -262.42517    47.946955    21.670338 
  471500    355.70551    -261.4284    349.63839    21.647503 
  472000    361.10747    -263.1953    608.34531     21.59181 
  472500    360.75508   -263.44446    706.46014    21.561287 
  473000    329.83626    -260.5773    885.86734    21.636184 
  473500    331.38302   -261.17987   -530.15726    21.748028 
  474000    361.41948   -263.43346   -122.12532    21.668247 
  474500    386.43244    -261.7495   -169.34252    21.730113 
  475000    333.20584   -263.86079    320.98229    21.583455 
  475500    378.75765   -261.09159    655.00683    21.649572 
  476000    317.54953   -262.02916     688.5214    21.590464 
  476500    316.81288   -261.88239    590.38345    21.603291 
  477000    359.76748   -262.55031   -79.928001    21.686086 
  477500    339.75979    -262.4833     510.8524    21.616916 
  478000    369.70648    -262.1114     827.4379    21.609641 
  478500    356.93418   -262.11512    1193.1238      21.5602 
  479000    327.47216   -261.41086    1053.3654    21.583804 
  479500    345.07725   -263.55371    957.69507     21.55026 
  480000    383.74871   -261.66118    74.521891    21.688512 
  480500    362.21302   -261.76576   -57.449182    21.690481 
  481000    357.29105   -261.88601    128.56295    21.670533 
  481500    328.84853   -261.86972    457.14546    21.627874 
  482000    323.83805    -262.7019     1061.491     21.52854 
  482500    351.60691   -262.75309    878.02007    21.571246 
  483000    328.59524   -262.07369    473.30198    21.614497 
  483500    386.62637    -262.0872     822.6343    21.587091 
  484000     347.0803    -262.6273    233.58053    21.616305 
  484500     351.6427   -262.22768    699.13759    21.606765 
  485000    349.15405   -262.25699   -9.8476412    21.682133 
  485500    370.99014   -260.73915   -363.84522    21.782111 
  486000    330.94155   -261.15692   -940.62419     21.81397 
  486500    373.07116   -261.40738   -567.34321    21.773339 
  487000       367.85   -261.36861   -155.76171    21.731319 
  487500    331.72313   -262.10598    26.016125    21.669426 
  488000    379.45089   -263.89814    315.57298    21.609838 
  488500    381.53454   -261.23321    461.16125    21.663209 
  489000     362.9671   -260.96571    -916.8891    21.817249 
  489500    336.02584   -261.14986   -1053.4915    21.814247 
  490000    322.15774   -261.50912   -988.08607    21.789546 
  490500    353.89624   -262.06144   -1180.9861    21.797284 
  491000    354.13189   -261.23706   -336.53344    21.745857 
  491500    335.58927   -261.78515   -313.52638    21.720577 
  492000    364.08202   -261.02581   -501.00265    21.766499 
  492500    359.38484   -261.97679   -799.22894    21.760803 
  493000    310.02179   -261.66332   -609.20154    21.691307 
  493500    354.29435     -261.509    43.471982    21.681794 
  494000    353.99629   -260.70005    843.66941    21.638705 
  494500    336.70112   -262.02155    1604.4125    21.514981 
  495000    370.33042   -262.84719    967.89337    21.555912 
  495500     368.0088   -260.29116    446.71667    21.677223 
  496000    327.02151   -262.40383    60.975123    21.651001 
  496500    337.31503   -261.76625    838.97611    21.584636 
  497000    351.83004   -261.29672    906.49898    21.612292 
  497500    371.45862   -261.20113    549.05078    21.643975 
  498000    353.67316   -261.19544    1360.9312    21.551261 
  498500    366.97657   -261.72207    314.74291    21.660439 
  499000    350.39966   -261.93448    406.03713    21.638002 
  499500    381.62613   -263.46271    240.87509    21.638786 
  500000    365.27803    -262.9172   -472.60619    21.721588 
  500500    354.05677   -260.40671   -997.79446    21.852267 
  501000    334.43799   -262.16673   -482.68922     21.73595 
  501500    323.72862   -260.39925   -304.61019    21.748849 
  502000    340.40025   -261.35008   -160.00723    21.715241 
  502500    355.00868   -260.72645    755.31267    21.629726 
  503000    371.71224   -260.18256     645.1688    21.654102 
  503500     363.2699   -262.02179    671.98152    21.588303 
  504000    362.92303   -259.64985    1723.7224    21.561701 
  504500    366.35005   -260.68273    1021.1175    21.627476 
  505000    357.26495    -261.2926    953.51696    21.605341 
  505500    338.43479   -262.66214     181.9669    21.625436 
  506000    325.84777    -260.6995   -184.48275    21.721023 
  506500    342.02396   -260.28821   -99.938708    21.747404 
  507000    332.90382   -261.20638    715.10333     21.61229 
  507500    332.03277   -261.40389    809.94013    21.604828 
  508000    344.75509    -260.9612    27.723666    21.703153 
  508500    339.94281   -261.65612   -419.11697     21.74543 
  509000    324.17881   -261.60614   -1245.9645    21.846772 
  509500    352.15684    -261.1876   -145.52895    21.731343 
  510000    358.31841   -263.43259   -2.4659509    21.653113 
  510500    365.83198   -261.67466    258.41054    21.656359 
  511000    368.93923   -260.61459    300.66115    21.681555 
  511500    338.04098   -262.61616   -79.866416    21.666257 
  512000    366.78694   -263.17128   -356.35471    21.699625 
  512500    350.64732   -263.99634   -237.42008    21.671671 
  513000    341.05372   -262.45859   -1222.4953    21.811846 
  513500    347.31335   -263.56972   -695.72309    21.717705 
  514000    328.12789   -260.58263   -527.27534    21.760642 
  514500    357.30739   -261.88922    531.82911    21.641709 
  515000    345.81142   -263.57249    256.72371    21.617838 
  515500     346.2351   -262.34882    720.10435    21.616301 
  516000     407.5799   -262.39606    1534.7114    21.509931 
  516500    368.60209   -261.43122    957.94222    21.590718 
  517000    364.34497   -263.25781    201.68924    21.623002 
  517500    386.54563   -261.49896   -41.018097    21.722481 
  518000     358.8294   -260.33891   -436.68224    21.776716 
  518500    370.68151   -261.79812   -1127.2245    21.840412 
  519000    351.46058   -262.06395   -720.16173    21.745444 
  519500    338.66302   -261.45423    234.16221     21.64803 
  520000    345.94461   -261.62603    300.27594    21.647417 
  520500    372.20142   -259.51134    -249.2291    21.774843 
  521000    353.13026   -260.79533   -757.22152    21.804894 
  521500    360.57404   -262.24445   -290.53101    21.706359 
  522000    338.97859   -261.52793    216.81608    21.660422 
  522500    358.55511   -262.28272    594.60177    21.607672 
  523000    366.40468   -260.79227    613.90694    21.661366 
  523500    352.87586   -262.40804    60.340455    21.663819 
  524000    335.27476   -262.08014   -750.80969    21.739881 
  524500    326.06189   -263.09713    143.78864    21.641029 
  525000     339.8224    -263.0543    40.371449    21.648656 
  525500    344.21476   -262.99349    164.83798    21.645055 
  526000    374.43655   -262.18231    531.84232    21.621274 
  526500    344.91746   -262.03172    814.16267    21.591933 
  527000    361.58963   -263.41147     572.5839    21.598096 
  527500    336.52938   -263.89559    728.56204    21.557135 
  528000    370.89637    -263.5697    1113.1443    21.528787 
  528500    356.73503   -264.96147    703.42082    21.537516 
  529000    366.25001   -263.33087   -126.45676    21.682458 
  529500    356.58288   -263.13971    183.01616    21.633824 
  530000    373.59649   -263.44753    164.44961    21.633905 
  530500    344.85004   -263.37404    108.84199    21.624135 
  531000    344.52346   -261.86433   -591.96842    21.748749 
  531500    330.31328   -263.33221    101.11693     21.64009 
  532000    356.79096   -263.30332   -35.280028    21.650016 
  532500    367.89989   -263.30611    538.80954     21.60804 
  533000    353.08288   -263.24198    1315.8696    21.511567 
  533500    376.51117   -261.30096    822.17848    21.628348 
  534000    318.38191   -261.48789   -286.43678    21.721526 
  534500     354.0832   -262.87667   -546.96698    21.723961 
  535000    350.73488    -261.3781   -241.29473    21.735701 
  535500    356.00944   -261.44895   -383.70002    21.742859 
  536000    349.84525   -260.51038    552.00432    21.661026 
  536500    343.32983   -260.27135    870.03649    21.629564 
  537000    347.22739   -261.34528     424.1844     21.64128 
  537500    342.48412   -260.30717    886.79592    21.619926 
  538000    362.63901   -261.07223    780.82973    21.626125 
  538500    372.49831   -260.78473    637.96238    21.643795 
  539000    328.44945   -260.71123    723.26525    21.611311 
  539500    359.66389    -260.1385    326.53789    21.680958 
  540000    340.45005   -262.08274   -152.39846    21.677724 
  540500    344.27072   -260.40501   -513.95885    21.788861 
  541000     365.9348   -261.34677    236.78598    21.682756 
  541500    341.25207   -262.98882   -25.924443    21.652732 
  542000    350.35249   -261.31257    256.73568    21.662854 
  542500    343.40805   -260.05298   -559.16089    21.794005 
  543000     361.2153    -259.7358   -578.17076    21.809119 
  543500    370.04888   -260.14863   -356.87178    21.761524 
  544000    366.25396   -261.45001   -236.45292    21.723377 
  544500    364.38432   -261.97663   -149.87936    21.697241 
  545000    336.80292   -260.96997    227.66789     21.66994 
  545500    338.75934   -259.95477    820.83771    21.655246 
  546000    357.24958    -261.8387    578.78856    21.626205 
  546500     324.5941   -262.24023   -13.273703    21.678036 
  547000    333.80741   -261.11936    369.20054    21.633476 
  547500    343.68181   -262.29077    310.34123    21.629085 
  548000     351.7806   -260.35033    -168.9525    21.767329 
  548500    345.21419   -261.19484    222.64364    21.683035 
  549000    361.78556   -260.53734    -449.0137    21.766075 
  549500    304.60122   -260.53511   -910.07016     21.81821 
  550000    362.39688   -261.01195   -7.1687159    21.694159 
  550500     363.4014   -259.89009    121.52447      21.7373 
  551000     352.2445    -260.7107    45.202377    21.709383 
  551500    359.50429    -260.7597    39.102823    21.715183 
  552000    350.08657   -261.65593    416.62216    21.640145 
  552500    377.44999   -261.81189     449.4843    21.631223 
  553000    331.46393   -261.39533    410.41371    21.628544 
  553500    380.05726   -260.15144    69.544578     21.72749 
  554000    365.81536   -260.26395   -213.46519    21.754034 
  554500    330.57261   -260.31933   -98.744167     21.70844 
  555000    352.81595     -260.875   -406.85161    21.755255 
  555500    353.68429   -260.87035   -289.03882      21.7347 
  556000    370.56438   -261.51264   -460.51985    21.746863 
  556500    347.03378   -261.13659   -212.07052    21.714436 
  557000    360.57497   -261.29367    1120.6847    21.561691 
  557500    361.26084    -261.3777    978.43167    21.585377 
  558000    339.90894   -259.08359    615.42238    21.703294 
  558500    324.28441   -260.23376    106.22523    21.691512 
  559000     333.7599   -260.77775    262.11492    21.671305 
  559500    375.88257   -261.73031    241.85138    21.682888 
  560000    366.97649   -260.29527    -1286.027    21.864326 
  560500    340.64551   -259.54199   -891.93368    21.840474 
  561000    362.39328    -260.6261   -901.45734    21.818371 
  561500    369.27035   -261.20775   -458.33725    21.726892 
  562000    359.80268   -260.18878    261.20799    21.679807 
  562500    356.23878   -261.65445   -91.079778    21.690915 
  563000    349.74032   -260.14758   -236.51315    21.744168 
  563500    360.45148   -261.94719   -729.27352    21.755206 
  564000    316.97825   -260.58774   -21.443183     21.71628 
  564500    341.26008   -261.61844   -280.75568    21.719575 
  565000    314.84748   -260.23386    281.34099     21.68149 
  565500    375.07423   -260.54102    180.08013    21.701868 
  566000    316.29695   -261.64048    212.94006    21.636463 
  566500    328.64837   -260.40485    470.60424    21.657153 
  567000    336.42199   -260.20489     669.8394    21.652968 
  567500    330.08465    -260.6699    801.76553    21.626546 
  568000    336.77589   -261.16834    465.81079    21.634578 
  568500    334.83683   -259.08199    44.749022    21.739171 
  569000    363.49839   -259.83631   -482.69878    21.777102 
  569500    324.40778   -261.16275   -1419.7337    21.841893 
  570000    358.17446   -260.47828   -749.06307    21.804011 
  570500    351.89375   -261.09077   -22.982822    21.701187 
  571000    352.03206   -260.26423   -642.42452    21.800214 
  571500    369.34769   -260.94641    76.163335    21.690487 
  572000    348.99354   -258.54092   -159.37926    21.785526 
  572500    343.16495   -260.22908    535.87099    21.636783 
  573000     375.9749   -259.92124    98.043908    21.713292 
  573500    335.61601   -260.55203   -183.02841    21.718808 
  574000    329.34708   -261.74431   -261.99282     21.68638 
  574500    346.63696   -260.29424   -696.12044    21.784599 
  575000    363.41358   -260.38176   -20.211513    21.741492 
  575500    341.72066   -260.44617    401.80354    21.667145 
  576000    317.68789   -259.45801    579.02196    21.673504 
  576500      343.976    -260.7021    417.15058    21.686113 
  577000     381.4092   -261.22224    1130.2298    21.572459 
  577500    347.87049    -261.4013    622.56907    21.613442 
  578000    335.89306   -260.28094      18.8848    21.714175 
  578500     346.8657   -261.64408    108.80544    21.663192 
  579000    369.06721   -260.56542    217.90825    21.685244 
  579500    333.92433   -261.56002    289.67687    21.626072 
  580000    380.74206   -259.84654   -217.37053    21.780335 
  580500     320.9224   -259.73417   -538.00073    21.786904 
  581000    346.20839   -260.17154   -64.213253    21.720031 
  581500    355.98926   -260.56156    80.830542    21.709166 
  582000    390.88371   -259.61922    694.75283     21.67534 
  582500    335.52976   -259.66707    1070.7247    21.604239 
  583000    349.06318   -261.41568    202.87489    21.667201 
  583500    368.14879   -260.85704   -60.545771    21.729206 
  584000    343.21006   -261.04584   -489.50721    21.742606 
  584500    353.55491   -260.44307   -607.45541    21.789156 
  585000    345.64147   -260.35932    328.34194    21.682911 
  585500    343.96473   -260.04188    621.53661    21.643744 
  586000     337.6066    -261.0196    106.20031      21.6879 
  586500    350.65869   -261.30214    571.72121    21.624145 
  587000    352.83915   -259.96119    727.52795    21.662287 
  587500    363.57554   -260.73221    744.04159     21.61625 
  588000    360.63929   -260.00885    117.57515    21.714484 
  588500    324.82017   -261.61913   -346.17069    21.712508 
  589000    347.32742   -261.43678   -1090.3727    21.827621 
  589500    334.00274   -261.13351   -1107.3902     21.83811 
  590000    326.65455   -261.81911   -138.27943    21.696803 
  590500    348.58937   -260.61258    35.241485    21.693193 
  591000     356.7474   -259.91608   -172.79393    21.769674 
  591500    376.57167   -261.12562   -381.56376    21.759118 
  592000    363.03409   -260.18251   -75.686934     21.75845 
  592500     327.0805   -259.95758     406.1213    21.687152 
  593000    331.32434   -261.34608    -274.6266     21.70741 
  593500    380.04241   -262.60448    75.387464    21.669299 
  594000    372.62778   -261.09446   -197.30262     21.72133 
  594500     352.9332    -261.5196    218.56855    21.687799 
  595000    322.30255   -261.96158     431.7896    21.633654 
  595500    357.72631   -261.09978    683.36812    21.626296 
  596000    358.93703   -260.91534    492.46092    21.664923 
  596500    358.31139   -260.97541    1196.9261    21.564126 
  597000    359.44447   -260.75606    775.76235    21.600834 
  597500    316.52383   -260.20279    514.75244    21.654594 
  598000    331.88652   -260.42161   -14.892637    21.692199 
  598500    352.73143   -260.35019   -577.87936    21.774402 
  599000    347.94334   -259.16149   -185.81901    21.778864 
  599500    352.75184   -260.26148   -473.85042     21.77175 
  600000    355.13693   -260.38178    -238.6469    21.729038 
  600500    367.00503   -260.88183   -344.75036    21.722875 
  601000    334.14376   -259.20937    -619.4375    21.799577 
  601500    341.76846   -258.63872   -1435.2084     21.92189 
  602000    364.77198   -259.95379    26.017813    21.717272 
  602500    355.11302   -259.76823    419.98663    21.686895 
  603000     326.8626    -260.7957    399.58505    21.664028 
  603500    322.37582   -262.54798   -378.56035    21.684476 
  604000    372.31956   -262.27194     -1128.79    21.810304 
  604500      354.152    -261.1266   -361.71358    21.755612 
  605000    375.36555   -261.04682    126.25157    21.702922 
  605500    391.89021   -263.10547   -746.86909    21.754151 
  606000    334.46579   -263.32213   -531.84524     21.70111 
  606500    341.85338   -263.63304    494.69813    21.585579 
  607000    356.21087   -261.66908    756.78649    21.611811 
  607500    354.84765   -260.97552     627.5643    21.665179 
  608000    359.92614   -261.04718   -388.21921    21.749155 
  608500     342.3561   -261.38554   -806.39645    21.792306 
  609000    351.21463   -265.51352   -366.26882    21.634736 
  609500    332.25472    -262.2307   -487.56327    21.732164 
  610000    362.18802   -260.97567    -585.1914    21.774074 
  610500    334.56411   -263.55655    -882.8032    21.735623 
  611000    312.88522   -263.42539   -31.468314    21.638164 
  611500    335.40008   -263.32689     569.1671    21.590684 
  612000    324.69441   -261.76877    458.87856     21.63251 
  612500    375.53261   -262.78445    824.61526    21.586759 
  613000    341.10326   -262.59181    534.36625    21.602272 
  613500     339.6611   -263.42811   -441.39465    21.683604 
  614000    334.44435   -263.01134    -933.2101    21.765442 
  614500     361.8411   -261.56504   -345.65511    21.741243 
  615000    338.28255   -265.05787   -346.69092    21.647802 
  615500    395.97548    -263.3183   -327.43264     21.70517 
  616000    323.55418   -262.18251    112.77177    21.667816 
  616500    337.10973   -264.20682    607.08913    21.558883 
  617000    350.08986   -263.30348    515.76495    21.594017 
  617500     350.1744   -264.65695    754.52581     21.53543 
  618000    339.89369   -263.32863     1066.878    21.545001 
  618500    368.82782   -262.71131    612.52112    21.625739 
  619000    341.59262   -262.05636   -133.08226    21.708981 
  619500    345.08132   -262.90353   -55.461913    21.676357 
  620000    341.24398   -262.05551    508.49478    21.615301 
  620500    355.29565   -260.79238    815.33479    21.635389 
  621000    372.03118   -261.80377    1211.6937    21.549352 
  621500    375.04209    -261.4961    245.54987     21.67762 
  622000     368.3494   -261.10565    -333.7991    21.745074 
  622500    348.37984   -261.32414   -145.49132     21.71334 
  623000    340.08218   -260.66592   -34.680168    21.703627 
  623500    351.81668   -261.82713    -286.8299    21.702528 
[...]
27358000    355.11034   -259.48945   -742.35988    21.797374 
27358500    332.32806   -259.74186   -278.45543    21.756718 
27359000    350.03034   -259.76761   -10.054599    21.731089 
27359500     333.9562   -259.23772   -16.716751    21.726102 
27360000    363.50878   -257.36836    414.64428    21.738683 
27360500    348.95398   -257.76243    647.93246    21.707469 
27361000    365.37928   -258.62949    449.77246    21.695152 
27361500    355.39907   -257.89771    507.19034    21.701205 
27362000    334.72677   -257.47491    1285.9383     21.60514 
27362500    352.04863   -257.18247    626.84034    21.722756 
27363000    340.73232   -257.72446   -391.82276     21.80599 
27363500    339.47668   -258.43192   -500.96748    21.779742 
27364000     346.7254   -258.31915   -280.31589    21.769839 
27364500    348.85324   -256.82904    6.6024662    21.785696 
27365000      310.664   -256.91083   -422.65781    21.809523 
27365500    382.31827     -257.266   -1113.8648     21.95982 
27366000    344.23323   -257.27029    -209.5618    21.804693 
27366500    351.93401   -257.64354    822.21628    21.689537 
27367000    349.86245    -258.5724    -193.2613    21.759226 
27367500    364.48125   -258.08474   -1121.0536    21.896246 
27368000    358.76413   -258.53644   -788.43757    21.809857 
27368500    333.64021    -256.6487    373.23674    21.737221 
27369000    365.93875   -258.53115    797.18489     21.66542 
27369500    366.18302   -256.80859   -261.63665    21.842352 
27370000    349.42436   -257.25597   -233.54877    21.796855 
27370500    357.37238   -258.11516   -212.01197     21.77608 
27371000    332.27307    -258.1931   -573.62575    21.784229 
27371500    333.30743   -257.51699    88.305989    21.776491 
27372000    327.84106   -259.31575    623.91002     21.64585 
27372500    345.21317   -258.38788    339.18649    21.721078 
27373000    352.44433   -258.72814    936.31513    21.655247 
27373500    339.36371    -256.8849    309.68533    21.765597 
27374000    376.88095   -256.40673   -450.58853     21.87812 
27374500    340.71948   -258.84835   -125.94965    21.724114 
27375000     338.2209   -258.80703    1203.1226    21.573616 
27375500    341.04288   -259.23338    946.02634    21.602704 
27376000    356.96177   -257.95553     776.3059    21.690237 
27376500     348.5846   -257.31259    343.26344    21.719987 
27377000    383.73539   -258.21198    459.19169     21.69311 
27377500    335.81965   -259.01066   -180.20548    21.749608 
27378000    326.89281   -258.19542   -953.91127    21.865466 
27378500    328.50044   -259.23003   -1203.0498    21.849198 
27379000    369.50733   -257.84379   -535.19736    21.827279 
27379500    324.24255   -259.45969   -324.99914    21.736815 
27380000    351.33524   -259.34593   -335.68764    21.755261 
27380500    367.04297   -258.57257   -793.31755    21.828324 
27381000    341.10673   -259.47708   -1011.2251    21.843946 
27381500    329.45738   -259.84274   -128.71342    21.712346 
27382000    332.41386   -260.22727    538.15288    21.630121 
27382500    358.20933   -260.01387     1125.536    21.615692 
27383000    369.67129   -259.68765    259.57302    21.704885 
27383500    340.53794   -260.46948     249.2143     21.68218 
27384000    334.54636   -260.02846    -696.3942    21.791959 
27384500    326.89909   -259.08667   -22.887916     21.73909 
27385000    342.03522   -260.42898   -724.66903    21.786054 
27385500    311.70688   -259.53852   -280.81729    21.747529 
27386000     381.7001   -261.91964    671.32721    21.607099 
27386500    345.69901   -260.58527     1613.114    21.542946 
27387000    323.26315      -260.14    1006.1515    21.596681 
27387500     349.9441   -259.48562    481.12421    21.694875 
27388000    302.45255   -259.80005    600.47929    21.638255 
27388500    347.69216   -259.29586      1014.61    21.622946 
27389000    360.60388   -259.51619    433.62587    21.683972 
27389500    339.38262   -258.30698    1.8474028    21.758438 
27390000    378.69627   -259.99086   -86.335881    21.742481 
27390500    341.68634   -260.43634   -455.67073     21.75964 
27391000    348.27683   -259.25388   -682.93188    21.823094 
27391500    348.33989   -259.14819   -1070.4605    21.861699 
27392000     319.5769    -260.3722   -272.98138    21.721037 
27392500    332.70088    -259.7296   -42.290558    21.714199 
27393000    329.56221   -258.58649   -865.32225    21.863009 
27393500    372.61187   -258.90364   -37.291485    21.765882 
27394000    350.31854   -259.86706   -459.42738    21.755784 
27394500    332.45143   -259.36127   -338.08525    21.768478 
27395000    335.40285   -258.53904   -409.74347    21.804666 
27395500    366.39238   -259.83623    228.47572    21.714249 
27396000    380.42779   -257.26794    645.40248    21.721816 
27396500    364.37454   -259.22454    519.03814    21.688405 
27397000    370.04149   -259.31853    729.55145    21.647283 
27397500    346.81967   -258.50665    1041.9567    21.648307 
27398000    361.21752   -258.07488    1054.3516    21.639273 
27398500    332.54465   -260.16767    502.61129    21.641518 
27399000     344.0018   -259.66314    62.589281    21.722023 
27399500    347.23718   -258.75345    163.70613    21.741974 
27400000    379.32758   -260.65399    390.77678     21.65692 
27400500    378.92054   -257.68731    554.83236    21.708308 
27401000    369.07307   -258.13501    672.87939    21.709436 
27401500    375.06487   -258.01251   -4.6253783    21.766195 
27402000    359.35729   -257.47578   -371.20862    21.811443 
27402500    341.25294   -258.72679    220.99562    21.704916 
27403000    343.68823   -258.33753   -450.15062    21.802702 
27403500    317.82395   -257.80865   -994.47329    21.883715 
27404000    340.54971   -258.85304   -105.17027      21.7553 
27404500    331.91014   -259.47493    1153.5162    21.598533 
27405000    373.75619   -258.39458    1334.7469    21.630003 
27405500    368.75715   -257.67402    625.81339    21.712887 
27406000    341.93915   -259.15591     533.7224    21.689831 
27406500    339.12742   -259.39654   -188.59603    21.750476 
27407000    337.29787   -258.79264   -964.04738    21.830577 
27407500    347.95365   -259.70624    -1222.869    21.841294 
27408000    352.83534   -258.91259   -792.63552    21.849001 
27408500    347.33477   -259.46379    -570.6353     21.78406 
27409000    363.55448   -259.37951   -567.29123    21.771145 
27409500    341.85771   -258.53632    470.48432    21.672641 
27410000    368.22901   -258.63253    461.01018    21.693046 
27410500    332.33984   -258.23033    487.84713    21.703435 
27411000    334.29396   -259.18243   -62.049436    21.744545 
27411500     356.0037   -258.09378    468.09696    21.705327 
27412000    339.30723   -258.81562    -19.63553    21.733619 
27412500    354.19304   -257.89739   -290.36002    21.800548 
27413000    350.86699   -258.54306    50.150224    21.729725 
27413500    372.40567   -258.90297    449.98968    21.695196 
27414000    361.32266   -257.73371     344.2265    21.770103 
27414500    365.45018   -260.58739    1151.3743    21.566688 
27415000    345.98984   -259.33245     552.5288    21.660318 
27415500    346.72436    -259.1162   -528.15612    21.762918 
27416000    341.61157   -258.13671    19.077064    21.744452 
27416500     333.5261   -258.79682     1692.084    21.533712 
27417000    349.12085   -257.59661   -49.551717    21.752383 
27417500    349.27401   -258.09527    61.836903    21.776112 
27418000     324.6141   -257.91052   -373.21945    21.804109 
27418500     383.1318   -258.73366   -966.52948    21.855237 
27419000    319.96117   -258.13108   -606.99012    21.811739 
27419500    352.12778    -259.1515   -228.26291    21.732487 
27420000     343.3563   -258.86786   -175.28894    21.729891 
27420500    344.66151   -258.10149   -803.33714    21.836196 
27421000    331.06314   -258.70124    534.35009    21.669878 
27421500    358.54002   -257.57765     534.2719    21.706828 
27422000    360.33259   -258.84956   -1060.8162    21.858908 
27422500    365.96286   -257.95405   -482.17738    21.828883 
27423000    315.94024   -259.16467   -628.18821    21.777831 
27423500    334.15887   -259.28054   -267.07547    21.754297 
27424000    340.62986   -257.05187    76.148378    21.791169 
27424500    342.52214   -257.66065    209.66416    21.774444 
27425000    338.02188   -258.73402    402.29548    21.697935 
27425500    365.69596   -259.03004    434.04521    21.695293 
27426000    405.33142   -260.24251    162.55223    21.701223 
27426500    360.07489   -258.63352     1.053657    21.762659 
27427000    333.88762   -259.97171    396.28723     21.67303 
27427500    321.45334   -260.96104    -619.7835    21.734888 
27428000    351.40851   -259.85251   -1202.6439    21.848692 
27428500    318.67668   -259.46428   -588.76531    21.798604 
27429000    376.30968    -260.1609     27.27585    21.720701 
27429500    356.10264   -260.30973    264.31997    21.686988 
27430000    355.43453   -259.01512    891.58735    21.649673 
27430500    357.25693   -260.65468    1197.3126    21.586346 
27431000    331.21305   -261.32855    672.96955    21.616687 
27431500    334.19561    -258.5759   -343.64837    21.798892 
27432000    352.34777   -258.37196   -830.42991    21.875206 
27432500    354.22645   -258.77251   -1136.4325      21.8854 
27433000    373.63338   -259.51185   -464.75849    21.790322 
27433500    354.55744   -260.75483    -260.4184      21.7238 
27434000    343.38166    -258.4176   -45.219043    21.744461 
27434500    344.42411   -259.71759    401.92218    21.677201 
27435000    353.48972   -259.81943    1114.3834    21.587853 
27435500    367.99263   -259.59859    727.72596    21.626283 
27436000    388.60902   -259.59286    476.67052    21.673028 
27436500    358.77702    -259.6974   -494.19168    21.786418 
27437000     341.5499   -258.75712   -956.94059    21.869478 
27437500    358.58504   -260.09406    -131.0398    21.728401 
27438000    379.98082   -259.34726    240.13501    21.714441 
27438500    384.02113   -259.47296   -201.03174    21.776357 
27439000    363.16851   -258.43567   -1204.8197    21.902727 
27439500    324.95178   -259.35659   -759.39189     21.80932 
27440000    356.73543   -259.92532    115.39933    21.682557 
27440500    338.27764   -258.69515    974.83362    21.647328 
27441000    363.27469    -259.0395    485.40576    21.685105 
27441500     369.3346    -258.8733    109.55574    21.742677 
27442000    313.20473   -261.14733    685.42945    21.596148 
27442500     361.2383   -258.84817   -239.40785    21.770576 
27443000    336.10726     -258.984   -155.53187    21.754977 
27443500    346.82807   -259.58444   -103.88916    21.731704 
27444000    340.44668   -260.26981   -57.361934    21.705311 
27444500    344.26027   -259.35402    689.92577    21.649917 
27445000    335.46797   -260.20839    1058.5534    21.583702 
27445500    308.29864   -258.75338   -275.63446    21.758402 
27446000     374.0199   -260.63338   -931.98172    21.816505 
27446500    351.57115   -260.78006   -327.13195    21.751824 
27447000    350.31899   -260.58754   -675.03966    21.780529 
27447500    330.61709   -261.03183    3.6215941    21.706298 
27448000    343.52002   -261.37515    99.370083    21.687564 
27448500    397.01505   -262.28293   -431.17784    21.738004 
27449000    347.08558   -262.14776    237.96913    21.650724 
27449500    387.65491   -262.20524    385.30421    21.654507 
27450000    345.14271   -261.60574    594.31119    21.626202 
27450500     358.2994   -262.06605    25.014096    21.696312 
27451000     332.1996   -261.80668    404.32621    21.639997 
27451500    387.71811   -263.98479   -340.05837     21.67846 
27452000    349.02281   -261.39738   -503.40932    21.748716 
27452500    332.54965   -266.24488   -276.02663    21.596219 
27453000    352.67589   -261.25825     169.6422    21.705921 
27453500    345.15857   -262.61908   -239.14939    21.697272 
27454000    356.36406   -262.43352    80.957016    21.666085 
27454500    371.95284   -263.88438   -311.74064    21.673137 
27455000    360.30495   -262.46646   -134.32528    21.700891 
27455500    336.49575   -262.46714   -384.15844    21.711896 
27456000    353.07077   -263.19044   -134.68144     21.67037 
27456500    372.15024   -262.24166   -495.46156    21.745264 
27457000    337.17583   -264.69691   -350.17235    21.651214 
27457500    346.65005   -265.61206   -590.95408    21.651917 
27458000    318.97363   -264.37134   -870.77711    21.713287 
27458500    326.30125   -265.07492   -613.93602     21.65758 
27459000    314.75544   -265.91363   -436.99943    21.617084 
27459500    359.86587   -265.85163   -1487.4002    21.737153 
27460000    357.73082   -265.14166   -1236.5975    21.738119 
27460500    344.25572   -265.47727   -274.47399    21.621755 
27461000    322.54604   -262.99415   -684.15319    21.734878 
27461500     364.7337   -264.65721   -738.85951    21.694264 
27462000    365.01587   -262.51563    324.61853    21.649665 
27462500     330.4524   -263.38874    522.86828    21.602257 
27463000    348.92195    -263.3835   -34.684062    21.650769 
27463500    319.24854   -262.62115   -1142.4093    21.771547 
27464000    382.29314   -261.50378   -1076.9095     21.81564 
27464500    346.90547   -261.26747    8.1256478    21.698418 
27465000    343.50567   -261.42478    105.65292    21.687567 
27465500    351.03042   -261.31764    58.657825    21.693968 
27466000     324.6521   -261.87687   -644.82897    21.738276 
27466500    323.83001   -262.84571   -510.47725    21.707235 
27467000    366.23687    -263.4765    159.63974    21.635093 
27467500    328.91504   -263.28526    572.05286    21.579924 
27468000    331.26729   -262.52133    367.26476    21.634127 
27468500    340.69059   -263.01416    64.989309    21.652477 
27469000     342.8308   -261.82899    91.072715    21.678201 
27469500    344.51344   -263.67245   -203.66679    21.664407 
27470000    357.65063   -261.43639    197.95867    21.662533 
27470500    345.30089    -262.2784   -571.37139    21.738549 
27471000    367.31481   -261.75411   -530.02729    21.753841 
27471500     329.5918    -260.5752   -801.43048    21.786398 
27472000    349.84709    -263.9183   -200.84596    21.655153 
27472500    352.68329   -264.10595    451.28915    21.579986 
27473000    331.70467   -262.16145    620.78951    21.597711 
27473500    361.22334   -261.65341    143.22622    21.684675 
27474000    346.14212   -263.85179   -21.788105    21.634523 
27474500     357.5327   -262.29566   -125.72776     21.69542 
27475000    330.29224    -264.6748   -629.37813    21.674634 
27475500    324.22784   -261.79787   -470.13823    21.740336 
27476000    328.64191   -262.57177   -423.97439    21.712268 
27476500    356.07675   -262.91571   -208.66595    21.685425 
27477000    338.09338    -262.9674    98.149569    21.645453 
27477500    377.68036   -262.87178    1508.6102    21.518825 
27478000    384.02979   -261.96892    430.12582    21.655569 
27478500    354.20225   -262.23053    38.389255    21.673729 
27479000     306.3922   -265.19766    288.53378    21.561913 
27479500    339.71458   -264.33277    -1.983939    21.619922 
27480000    363.96986   -264.62819   -264.19895    21.648624 
27480500     360.3562   -263.35764    29.654851    21.654255 
27481000     332.7598   -262.40595    612.26401    21.605574 
27481500    357.60743   -263.30154    718.80218    21.582328 
27482000    361.71489   -264.71023    435.98695    21.572006 
27482500    353.47776   -265.27042    874.12695    21.514901 
27483000    330.09063   -265.74243    485.40926    21.520439 
27483500    329.20996   -265.52361    489.23648    21.544044 
27484000    370.36218   -264.17541    911.89969    21.548289 
27484500    336.62036   -265.43321    949.12404    21.494947 
27485000    365.80772   -262.58757    495.34305    21.615261 
27485500    362.37707   -262.22447    228.24994    21.656806 
27486000    381.77693   -261.73479   -96.010359    21.712295 
27486500    383.80698   -263.17007   -25.630062    21.668826 
27487000    349.94598   -266.71586    368.49248    21.516819 
27487500    345.77102   -267.19073    408.07005    21.503905 
27488000    329.00909   -264.98208    510.52977    21.551256 
27488500    384.15821    -265.1644    1240.5938    21.484889 
27489000    358.08514   -266.42424    1403.2084    21.422752 
27489500    369.61166   -265.41127    1032.3383    21.499434 
27490000    382.66487   -266.36245    244.76411    21.557805 
27490500    380.06783   -264.63565   -180.77285    21.644584 
27491000    347.66416   -265.20831   -77.852364    21.611642 
27491500    339.05407   -266.48308    588.32081    21.509113 
27492000    340.77372   -265.08251    471.98955    21.555211 
27492500    361.16157   -266.21123    449.19406    21.540935 
27493000    363.09345    -266.4432    223.74141     21.55251 
27493500    363.15189   -266.48062    202.37997    21.553899 
27494000    350.81663   -263.92866    1469.7899     21.49557 
27494500    27493500    363.15189   -266.48062    202.37997    21.553899 
27494000    350.81663   -263.92866    1469.7899     21.49557 
27494500    359.79259   -263.37796    794.98934    21.566722 
27495000    396.96599   -264.23126    1059.0918     21.53375 
27495500    339.44572   -262.71557    533.71262    21.615428 
27496000    370.90222   -263.97361   -289.25867    21.674646 
27496500    364.28687   -263.18501   -23.358912    21.662811 
27497000    357.37843   -263.31591    -620.9081    21.724629 
27497500    347.54566   -262.29787   -1580.9196    21.848158 
27498000    331.84581   -262.14704   -763.83997    21.768541 
27498500    340.00994   -262.88298    138.90594    21.643115 
27499000    359.25162   -266.74891    534.15254     21.51687 
27499500    358.14653   -264.64174    637.53655    21.553332 
27500000     363.0412   -265.06954    322.04078    21.568261 
27500500    372.48697   -263.58706    113.45706    21.640317 
27501000     340.5908   -263.39922     316.6334    21.622322 
27501500    331.14576   -261.81696    108.86259    21.676854 
27502000    335.11724   -261.61611     473.6505     21.62977 
27502500    371.35134   -259.87834    500.66601    21.672075 
27503000    376.72127   -259.76374   -373.50609    21.800808 
27503500    332.70116   -261.29701   -372.88977    21.730278 
27504000    347.35752   -261.89731   -376.94771     21.71415 
27504500    335.28326   -260.43422   -530.46557    21.764256 
27505000    367.46195   -260.69748   -155.21182    21.727015 
27505500     335.7005   -261.09413    100.87487    21.669241 
27506000    384.46933   -260.45115   -192.98163    21.761545 
27506500    330.72907    -260.4289   -1012.9771    21.807578 
27507000    339.11441    -260.6936   -736.01996    21.804588 
27507500    348.51287   -262.24509    470.61752    21.624531 
27508000    353.19951   -260.43286    227.31136    21.698461 
WARNING: Wall time limit reached (../timer.cpp:263)
Loop time of 85800.2 on 8 procs for 27508000 steps with 250 atoms

Performance: 55.401 ns/day, 0.433 hours/ns, 320.605 timesteps/s
99.3% CPU use with 8 MPI tasks x no OpenMP threads

MPI task timing breakdown:
Section |  min time  |  avg time  |  max time  |%varavg| %total
---------------------------------------------------------------
Pair    | 4340.3     | 4629.1     | 4916.3     | 290.6 |  5.40
Neigh   | 62.189     | 64.972     | 67.155     |  22.6 |  0.08
Comm    | 1213.8     | 1513.2     | 1821.1     | 526.6 |  1.76
Output  | 958.7      | 958.73     | 958.89     |   0.2 |  1.12
Modify  | 78519      | 78538      | 78549      |   3.3 | 91.54
Other   |            | 96.36      |            |       |  0.11

Nlocal:    31.25 ave 33 max 29 min
Histogram: 1 0 0 0 0 4 0 2 0 1
Nghost:    892.75 ave 908 max 880 min
Histogram: 2 1 0 0 2 0 1 1 0 1
Neighs:    2268.25 ave 2500 max 2082 min
Histogram: 2 0 2 1 0 0 0 1 1 1

Total # of neighbors = 18146
Ave neighs/atom = 72.584
Neighbor list builds = 737181
Dangerous builds = 0

write_data	data.final
System init for write_data ...
Total wall time: 23:50:08
