LAMMPS data file via write_data, version 1 Feb 2019, timestep = 500000

256 atoms
1 atom types

1.9225447641832449e-01 1.5991745523582274e+01 xlo xhi
1.9225447641832449e-01 1.5991745523582274e+01 ylo yhi
1.9225447641832449e-01 1.5991745523582274e+01 zlo zhi

Masses

1 26.982

Atoms # atomic

5 1 2.2907890409035403e-01 5.5738701713750660e-01 2.9152910334301736e+00 5 0 4
155 1 3.9142418446290672e+00 2.1926333905696920e+00 5.9993230728552414e+00 0 0 -4
231 1 2.2545223439036404e+00 2.1073976344969383e+00 3.2859101653712361e+00 4 -3 0
163 1 7.1643505552439568e-01 4.0755526518239034e+00 4.2173982480328460e+00 1 1 2
69 1 4.2419720248705639e+00 1.3383758991529515e+00 1.7874988694243743e+00 -1 -3 -3
68 1 2.7500122521655346e+00 3.9629886196341158e+00 2.0214715708199584e+00 4 1 -3
217 1 3.8565240218639349e+00 4.4567590012588498e+00 7.2462761098059261e+00 2 7 1
175 1 3.2071767252635519e+00 4.0374392378309283e+00 4.6279942983773754e+00 6 -3 -5
223 1 7.4849679022402038e-01 5.2902442627439594e+00 1.3382395193249146e+00 7 -2 -6
64 1 5.3294864360661585e+00 4.8133663904230906e+00 2.8490016079212110e+00 -6 0 -1
104 1 4.3439700021959577e+00 3.2280722702413533e-01 4.1190669776132003e+00 -3 -8 5
194 1 1.4900599149868197e+00 2.7406382146463639e+00 7.0215725320718043e+00 0 -2 2
128 1 7.6597990228967676e+00 5.0104160943404938e+00 3.1326868658846867e+00 3 5 4
213 1 9.5407982752663365e+00 3.8403008105150507e+00 5.0955241067628139e+00 3 1 2
50 1 9.9152856140172574e+00 3.9351350115170076e+00 2.8019340666183736e+00 -4 3 -4
22 1 6.1978022932079906e+00 2.5517098863773047e+00 1.2772478429179197e+00 -4 -3 -3
193 1 7.7191244626027489e+00 2.6092980411800775e+00 5.2938896185975759e+00 -3 1 5
31 1 8.8135049948445428e+00 2.6071269361357881e+00 7.9136351555164897e+00 -4 -1 -1
166 1 5.4807353326863373e+00 2.4702563970597495e+00 3.9211482615358189e+00 3 3 4
45 1 5.8586235271587670e+00 2.5251426277825741e+00 7.0270662489596933e+00 -1 -2 1
34 1 7.7931983738161383e+00 4.5953146307371968e+00 6.9647826719598163e+00 -2 0 -8
196 1 9.6928631059274153e+00 1.0665206924370740e+00 1.0915828123445686e+00 1 -4 6
254 1 8.8843804176567858e+00 3.9187029915154131e-01 6.3794904151915954e+00 3 1 -3
153 1 8.8179516914477318e+00 1.4891286661156253e+00 3.2520533827076172e+00 0 -3 -2
181 1 5.6409118856941891e+00 4.8067410077939927e+00 5.3431332517118815e+00 3 -1 1
134 1 1.0620491897361312e+01 3.6268174848338872e+00 4.2424776925873786e-01 0 6 2
6 1 1.5186249703385826e+01 3.6634098996920419e+00 6.5612870610832541e+00 8 6 3
61 1 1.4175416633197489e+01 2.8286829227046497e+00 4.4414089056521853e+00 -7 1 -1
250 1 1.5904119648279094e+01 2.5964875591999741e+00 2.0134515781396529e+00 4 2 4
229 1 1.2138450559290934e+01 2.6277399973123705e+00 2.5073776522572748e+00 -3 -1 7
26 1 1.3319971714860390e+01 1.0211888822336759e+00 7.0430773094076358e+00 1 0 -2
110 1 1.4030824350450334e+01 2.6193339527799955e+00 3.5601461962221226e-01 -2 -3 4
107 1 1.1580461260421369e+01 2.4015621541466898e+00 5.0235977031818662e+00 2 -2 1
214 1 1.4228214998644003e+01 4.5022393789035080e+00 2.3588705614836614e+00 1 3 0
173 1 1.5421041505004505e+01 1.2725289634902486e+00 5.9279314532063312e+00 -4 1 5
135 1 1.1094981373271271e+01 1.6569638027271922e+00 7.5615237045327186e+00 4 -8 4
102 1 1.2253331277602701e+01 4.8471290769453237e+00 4.2106784996724027e+00 -4 -1 6
198 1 1.3359804790051182e+01 1.0743657977695844e+00 2.4299978603123242e+00 -7 1 -5
132 1 1.2635161710900334e+01 3.4658722466486176e+00 6.4539069993860343e+00 0 3 -2
221 1 9.5918961486832766e-01 7.5043669748339052e+00 1.4120838780253451e+00 3 1 4
95 1 2.8828349389254408e+00 9.6886271012057463e+00 4.8691621474181862e-01 1 -4 2
106 1 4.2991825995975896e-01 6.5045255435211109e+00 3.5844360704818343e+00 -6 1 3
93 1 3.1505620277382427e+00 6.5305884728558468e+00 4.9782619935554173e+00 1 -1 3
185 1 4.2810920005796982e+00 9.3912548175486066e+00 2.9983406752513897e+00 -5 -3 5
159 1 3.1008524391058456e+00 6.7900279244313708e+00 2.5055122934773495e+00 -4 4 1
1 1 5.3642875391591209e+00 6.4931757869239846e+00 7.4305892025135130e+00 1 -2 3
199 1 4.2717338122845812e+00 9.0395208111968799e+00 5.3867683037755096e+00 1 -4 -1
103 1 1.0550522088244205e+00 1.0503052436596878e+01 6.5441532031487410e+00 0 5 -3
216 1 7.6884950028614407e-01 7.9570308093797513e+00 6.3817929248422400e+00 -3 -1 0
183 1 1.2025994100059556e+00 5.5092523858384679e+00 6.7068091394540872e+00 1 4 1
244 1 1.4947263101805028e+00 8.7981341904762296e+00 3.9507142775838697e+00 -2 -3 -5
164 1 5.2557035856267760e+00 7.8149813098119418e+00 9.1172621816833044e-01 2 -3 3
44 1 2.9282216373557177e+00 7.4411869958999795e+00 7.4253383488045559e+00 2 1 -1
220 1 1.1198064193573245e+00 1.0320898448372851e+01 2.2306675052324900e+00 1 0 3
237 1 2.1255465477651114e-01 9.9687006396346334e+00 3.6014624504432291e-01 2 7 -6
58 1 3.6149914938583683e+00 9.8602744254362769e+00 7.8810716814283728e+00 1 2 2
129 1 8.1235374728887209e+00 6.7969501944906447e+00 7.5378714834982050e+00 0 1 -1
188 1 6.9588430757594582e+00 1.0022659605250457e+01 1.4010214433569637e+00 -1 7 1
94 1 6.0352660008632713e+00 1.0051822632984127e+01 7.2258651248594958e+00 0 -5 1
82 1 7.3293359016642521e+00 8.8531456909149533e+00 3.4960607781596029e+00 3 -3 -5
114 1 8.2950759128099847e+00 6.7086884370032873e+00 4.4306860310677267e+00 2 3 0
15 1 7.9850965048887730e+00 7.3433851996022783e+00 1.0980820194025385e+00 -2 -2 -2
234 1 1.0528006467592370e+01 5.9595857844668387e+00 5.6100406525282738e+00 -6 -2 5
210 1 6.2342200258000018e+00 8.2462044969073993e+00 5.6323847395351887e+00 -3 -6 0
13 1 9.9139862715570040e+00 6.8889046219995054e+00 2.0020760174530174e+00 6 5 8
77 1 9.1718030625218923e+00 9.0154508010351115e+00 5.3485912865061298e+00 -2 -2 -7
100 1 1.0312137934448884e+01 9.1389039987121912e+00 2.7645324220446019e+00 2 3 0
81 1 5.5742023190529659e+00 7.1437497813924864e+00 3.7731145933818979e+00 -5 5 -2
249 1 9.6401972785239458e+00 1.0609800148595077e+01 7.2731698097262454e+00 -2 -8 3
238 1 1.0235283782371042e+01 8.2701545606083364e+00 7.9837528319029403e+00 -4 5 5
222 1 1.2106374347437693e+01 5.7288212994701500e+00 1.7269816572004633e+00 -2 2 1
23 1 1.1205663080095789e+01 7.4721484672681022e+00 3.8950581859040638e+00 0 5 -7
180 1 1.3660448783728416e+01 6.9675090771960484e+00 3.0806377278894734e+00 -2 3 1
138 1 1.1392620783588036e+01 9.0122785347502692e+00 5.9558684591413042e+00 -6 0 2
99 1 1.4332291774284506e+01 6.3227610843130568e+00 6.2469309787696115e-01 -2 -2 2
191 1 1.4643633907646482e+01 8.4656977817095083e+00 5.0563920576401316e+00 -1 3 2
207 1 1.2094773293908499e+01 8.6302833167962945e+00 1.3327105218353306e+00 -2 3 4
47 1 1.2040829564548179e+01 6.0690734005738447e+00 7.0072520338521285e+00 1 0 2
56 1 1.3018508738526837e+01 9.4991754359798222e+00 3.9520861306609132e+00 1 -2 -4
154 1 1.4579420373542501e+01 5.6277936530766404e+00 5.3515262398142305e+00 -2 -1 7
11 1 1.3601227358040173e+01 1.0366083044788095e+01 9.0863382614499000e-01 -6 2 0
172 1 1.5052373697732364e+01 9.1537475709580107e+00 2.4041087556401157e+00 0 -1 7
63 1 1.4064868887053464e+01 7.8369047852433633e+00 7.3327078435347071e+00 -5 -6 -1
203 1 1.4070440524628289e+01 1.0287378752566497e+01 6.6490596464932112e+00 3 0 -4
84 1 2.1821678209198554e+00 1.5040449197129909e+01 2.5457370069590510e+00 1 -5 -5
122 1 5.0917725116705501e+00 1.1958096622250995e+01 6.0093405262558823e+00 3 2 -2
212 1 4.3677039924500987e+00 1.4362227989542617e+01 2.0462098345588919e+00 2 -5 3
189 1 1.9162276708722759e+00 1.3312812557822962e+01 9.6691042616155565e-01 5 1 -2
245 1 2.4729729020535540e+00 1.1117526911295720e+01 3.9885674861187792e+00 -8 -7 1
21 1 2.2523541303339716e+00 1.5937398476891897e+01 5.1910653588603584e+00 -1 0 -2
109 1 4.1564957151638673e+00 1.4984511598329242e+01 6.9207122522791131e+00 -1 -1 -2
142 1 1.7051307162985578e+00 1.3829278822157640e+01 6.5398976539261904e+00 1 1 -2
208 1 3.4908814435262761e+00 1.3686476313792433e+01 4.4431037728981719e+00 1 -5 -1
19 1 2.9041026526384397e+00 1.2230450420670305e+01 7.2521328207205107e+00 -3 0 -3
97 1 3.7294935940463172e+00 1.1549887716313020e+01 1.9206878552187461e+00 -2 -3 7
116 1 1.1036625833193539e+00 1.2998896567372952e+01 3.3668909651180936e+00 -1 -1 2
157 1 6.7712873719708293e+00 1.5734950872402802e+01 2.0312452235092788e+00 1 -3 0
242 1 6.7188342039513289e+00 1.2599273284615464e+01 1.8333102527957950e+00 3 0 3
241 1 6.6140220356318729e+00 1.4383148372599941e+01 6.4649969679448054e+00 -2 -7 2
85 1 7.6743167561794383e+00 1.1209490562239097e+01 5.0855273903812357e+00 -4 -1 -2
243 1 5.9916831687549106e+00 1.3521350778622459e+01 4.1731680913740412e+00 3 0 -1
156 1 9.0619228999550785e+00 1.3467838746588047e+01 6.5501350498163093e+00 -6 -6 0
202 1 1.0320589186720273e+01 1.2922698633993708e+01 2.0942454751699162e+00 3 -2 1
43 1 1.0276662131064331e+01 1.1446938416786082e+01 4.6709245230436665e+00 -2 0 4
226 1 6.7827257042414084e+00 1.5971849857540445e+01 4.6373974224954395e+00 6 -1 -2
162 1 5.5807011105950171e+00 1.1065992637042669e+01 4.0354687872249730e+00 2 0 0
219 1 9.1700730710400364e+00 1.1259892296044743e+01 2.3812077326956285e+00 0 -1 4
204 1 8.7657878090576382e+00 1.4143820649393344e+01 3.7470771181653300e+00 -3 -1 -2
209 1 8.3118429525602480e+00 1.4354603440771047e+01 7.6506244605958684e-01 -2 -1 5
147 1 7.6495043608461559e+00 1.2084725793378578e+01 7.5947815467395658e+00 2 2 8
46 1 1.5425194011417616e+01 1.2733698514585654e+01 6.6014627777033228e+00 1 5 7
70 1 1.5412987858857836e+01 1.1458400191538065e+01 4.5292017470623716e+00 2 0 -5
36 1 1.1520855677205123e+01 1.1990052004207012e+01 6.7450481952072403e+00 3 1 -1
169 1 1.2006128639230713e+01 1.1267545688149355e+01 2.4006311467765946e+00 -3 -5 -6
224 1 1.2906611715985765e+01 1.4038169034574146e+01 2.6882949283112874e+00 -2 -1 4
54 1 1.4805840807749394e+01 1.2163917097921143e+01 2.1874525147272355e+00 -3 8 0
256 1 1.3362727131079268e+01 1.4035431215294540e+01 6.1620867377655406e+00 1 -2 1
177 1 1.1615062478128092e+01 1.4873921069570901e+01 7.8963450176139842e+00 -1 -1 -3
136 1 1.5226614919792699e+01 1.4482913615893697e+01 1.5463831003950601e+00 -1 1 3
83 1 1.5489522978848196e+01 1.4652460862991855e+01 4.7659791314413242e+00 0 -1 4
89 1 1.5806700355941679e+01 1.5458297110307488e+01 7.4341812761971662e+00 0 2 -8
78 1 1.1293624193971262e+01 1.3458679463664275e+01 4.5771577890006032e+00 4 1 -1
182 1 1.1023737765355627e+01 1.5665700194655290e+01 3.1767460200878777e+00 -3 3 5
113 1 1.3350243731289890e+01 1.5759131646910687e+01 4.6519349051890977e+00 -1 4 1
235 1 1.2882050296622001e+01 1.1902306394074387e+01 4.7544122794648391e+00 5 -3 0
24 1 1.0978297855124264e+01 1.5957404753597963e+01 5.7051586949614723e+00 5 -5 -1
62 1 1.0825521490544727e+01 1.4733541874300631e+01 3.0942502701669383e-01 1 0 -1
27 1 5.1361352210182636e+00 3.1452839591186027e-01 1.5421774812185546e+01 -3 4 1
29 1 6.7988507356584682e-01 4.4905614695387861e+00 1.3331901739796791e+01 2 -1 -3
48 1 3.3717332819971650e+00 4.8584819821452223e+00 1.4553984296403289e+01 1 1 2
79 1 4.5136485771055517e+00 4.4347916034853938e+00 1.1015635325453839e+01 -3 -4 -5
165 1 2.4507124076407250e+00 5.2664730955288697e-01 1.2710222102554571e+01 1 0 0
124 1 2.7356573227876093e+00 3.3502091445363438e+00 1.2442270542767012e+01 -4 -3 -1
247 1 2.3334128747087668e+00 2.3747635370476675e-01 1.5206199412505846e+01 4 1 7
230 1 3.3559382004881044e-01 1.8052451258496414e+00 9.0039930336280349e+00 0 6 1
240 1 4.7463664717195364e+00 1.9581285213284396e+00 1.1200105585938882e+01 2 5 1
215 1 2.9046026657130848e+00 2.7224987414631374e+00 9.6016688722570933e+00 0 -5 -3
123 1 9.8993997502864584e-01 4.9578776901253967e+00 1.0795646033841383e+01 1 2 1
140 1 4.0716552565345374e+00 2.3943962828587138e+00 1.5178428818213138e+01 4 2 6
144 1 2.8257310209909217e+00 5.4230591740400609e+00 9.2684960552167865e+00 -4 -1 -2
2 1 3.2795172707124274e+00 4.6933300346843865e-01 1.0496549556308057e+01 3 3 1
7 1 6.2424438635942381e-01 2.1871334785740064e+00 1.1677490022592757e+01 5 5 -4
125 1 4.6517551861693809e+00 1.0875202685183725e+00 1.2966382590188353e+01 -2 -4 6
73 1 5.0309861215971923e+00 9.2813838037752805e-01 8.7234338180165558e+00 4 -1 -4
39 1 9.6892988847161343e-01 2.7395844043876911e+00 1.5374289684471378e+01 1 1 -5
119 1 2.5055860399303342e+00 6.4782002299403940e-01 8.0934708010093281e+00 -2 6 -6
10 1 7.8374067314514724e+00 1.0913812273162016e+00 1.5739931033446378e+01 -8 9 -6
148 1 9.2168245709441656e+00 2.7890648903588220e+00 1.3808465965632781e+01 -4 -1 -5
187 1 7.5860567453715264e+00 1.0376999341949729e+00 1.2880793427889195e+01 -2 -2 -1
158 1 6.2425872708392669e+00 2.9093979464720268e+00 1.4183444450698911e+01 1 -1 -2
101 1 7.1249698523689444e+00 3.5088572123712751e+00 1.1727544574369507e+01 -1 -1 5
9 1 8.4338553042243909e+00 5.2301156216889781e+00 9.5677130009336153e+00 4 3 -6
115 1 6.6269641134160846e+00 3.5115653477608788e-01 1.1187500837409459e+01 -2 2 4
133 1 8.8492109158524848e+00 1.3976646585998160e+00 1.0582597416595352e+01 -2 1 -1
67 1 7.8902277759836643e+00 4.8069444675564217e+00 1.4003191950690056e+01 -7 -3 0
20 1 1.0174336441834850e+01 6.4236663941020700e-01 1.4349240744865376e+01 -4 -2 -4
12 1 5.7966952161647400e+00 4.9968126066557934e+00 9.0522204100479797e+00 -6 0 -8
167 1 9.9226244917950162e+00 3.5822349487762311e+00 1.0806456441825929e+01 2 -1 0
151 1 1.0515635113054500e+01 4.8931889536714310e+00 1.3248169005629038e+01 1 1 6
111 1 7.1778727826125879e+00 2.5564784709460642e+00 9.6223997933733472e+00 -2 -2 2
35 1 5.7454964625084752e+00 5.2115745011857353e+00 1.5954223455974727e+01 1 6 -1
87 1 8.3441759938754601e+00 3.4424265210434872e+00 1.5903156582119967e+01 -5 -1 0
16 1 1.4829504718744936e+01 4.4488760689278362e+00 1.5083984478886549e+01 -1 5 4
80 1 1.1450198655434143e+01 9.0270497887576773e-01 1.0146849041903792e+01 1 1 2
195 1 1.4569600287847269e+01 2.2407365361390563e+00 1.3334984562469330e+01 1 1 1
137 1 1.4529600370171153e+01 3.6279940775811781e+00 1.1080001556296381e+01 2 -5 0
141 1 1.2043441829971368e+01 3.9578127230688822e+00 1.0750831967233307e+01 -3 5 7
170 1 1.5909532056578794e+01 4.6292192026346513e-01 1.5048346403928011e+01 -2 5 -1
8 1 1.4012678049816898e+01 5.3474326853017828e+00 8.4962106743866173e+00 2 1 4
200 1 1.2333200236450150e+01 3.5631540993539468e+00 1.4145983478479661e+01 6 -5 -3
232 1 1.1275883622765562e+01 1.7579586324197400e+00 1.2581224439184577e+01 -1 -2 -1
192 1 1.4105523980167696e+01 1.1212780332778842e+00 1.1198128775393005e+01 -4 -1 -1
121 1 1.3293816036648042e+01 2.7794864882483497e+00 9.0492799963661810e+00 -1 7 3
149 1 1.0820259380056989e+01 4.0811384711431788e+00 8.1649490892930743e+00 -3 0 -1
17 1 1.2123441882643494e+01 1.0837217166508832e+00 1.5894541483339603e+01 1 4 -1
239 1 4.4363243495989768e-01 6.3866643338750251e+00 1.4458023711126415e+01 3 3 5
65 1 4.5763190020296890e-01 6.8441791692203173e+00 8.9691133413826520e+00 5 0 -6
178 1 2.4328598834011879e+00 6.3781189236051938e+00 1.2730994084335830e+01 -2 0 -4
74 1 5.2201074628280830e+00 9.5689477465944215e+00 9.9345069528265206e+00 2 3 2
66 1 4.4563890798882504e+00 6.9149116611126207e+00 1.1176163854365573e+01 1 -5 -6
86 1 2.6813028595943780e+00 8.2064799342185317e+00 1.0128066115388446e+01 4 -6 6
108 1 1.1435987342477798e+00 9.8699091034866058e+00 1.1289907189103065e+01 1 -1 1
146 1 2.9301907058950123e+00 8.8950459535530655e+00 1.2806570816102145e+01 2 1 2
28 1 2.7610832393688844e+00 7.1188804591196799e+00 1.5846793950984591e+01 5 3 -2
3 1 4.7430599577222896e+00 7.1367984837710514e+00 1.4251663633900765e+01 -3 -1 1
174 1 5.3234647576548557e+00 1.0422201229249040e+01 1.5032083030979454e+01 9 4 0
52 1 4.1474456352651146e-01 9.1676202828092492e+00 8.7579516473664505e+00 -2 -3 4
143 1 1.1045230840445508e+00 8.9100359036269090e+00 1.4201131939013038e+01 0 -4 -2
51 1 5.0859749623561186e+00 9.3192388711705583e+00 1.2751957211708763e+01 -10 2 5
171 1 8.8532284947440729e+00 6.6624157619286670e+00 1.2110249285558602e+01 7 6 -3
255 1 6.2701140463328242e+00 5.8118105994605891e+00 1.2570844745408749e+01 11 0 -4
186 1 1.0207921989263301e+01 6.3384535441356089e+00 1.5326678444580935e+01 5 5 -4
201 1 9.8563471730410015e+00 1.0355412506774975e+01 1.0476951508368394e+01 -3 -8 2
92 1 7.9647180062744374e+00 9.5732198827120278e+00 8.7849682544480387e+00 -2 4 -5
98 1 9.4161755113273031e+00 9.1511465285810374e+00 1.2511502783174631e+01 0 4 3
130 1 6.4035877231789229e+00 7.5882258557595241e+00 9.6515826830300853e+00 2 2 7
127 1 7.6182465443150438e+00 9.9567954840809207e+00 1.4099480191356101e+01 -1 3 2
131 1 7.5728810348346096e+00 1.0717165534831839e+01 1.1165777608911959e+01 -4 -3 5
60 1 7.9899871506304896e+00 7.3090411319781685e+00 1.4408132834077140e+01 3 5 0
253 1 9.5651917326723321e+00 9.3565018736865042e+00 1.5983372961736414e+01 -1 -4 3
14 1 8.8643525796654394e+00 7.8563438848169760e+00 1.0257616594113617e+01 4 -6 -2
25 1 7.3128434163517948e+00 8.2977878711063653e+00 1.2096192924667804e+01 7 1 -1
59 1 1.1036402793849255e+01 6.1231110101377597e+00 1.0079531659543377e+01 -7 -1 -4
120 1 1.2076584275665194e+01 9.8480799370331198e+00 8.3773410051844976e+00 -3 7 -3
49 1 1.5915968070351495e+01 7.2059747617036685e+00 1.1759143816123856e+01 -1 -2 0
205 1 1.4033159424897743e+01 8.6140659728898861e+00 1.2626832158310780e+01 -2 3 1
42 1 1.1295717384995424e+01 7.3811706370110590e+00 1.2664590316750491e+01 -2 -1 -1
105 1 1.3860193454424454e+01 5.7253850512126450e+00 1.2844522106706098e+01 -1 -2 -3
75 1 1.4242429405593235e+01 8.9469468392684597e+00 1.0250076489394615e+01 -4 0 -1
160 1 1.3603747189821586e+01 6.4629597793458968e+00 1.0524925399639315e+01 -4 -6 -3
248 1 1.1486782164118740e+01 8.4782820160721499e+00 1.0303442323855521e+01 3 3 4
33 1 1.2093592959694803e+01 1.0320449164542147e+01 1.2594236627606247e+01 -4 0 -1
197 1 1.4591085477933074e+01 8.1825035018463943e+00 1.4761179020736328e+01 0 1 0
30 1 1.2170679649809681e+01 9.1450175609021791e+00 1.4639024275760306e+01 7 3 -4
118 1 1.2569870712259050e+01 6.6536825738163854e+00 1.5172808729765695e+01 1 0 -2
38 1 4.8471864899050232e-01 1.5440332804726047e+01 1.2538090007606666e+01 1 -1 -1
53 1 2.6262537283830856e+00 1.3740491098902702e+01 1.1305337074265033e+01 -1 -2 0
117 1 1.0841144958666447e+00 1.2030763824202634e+01 1.2627700376495721e+01 3 -1 -2
168 1 1.9903790488216804e+00 1.1091963079289723e+01 1.4690151929277008e+01 1 -1 0
218 1 5.1554312191783156e+00 1.4323078530585104e+01 9.6525214854357699e+00 1 -1 1
57 1 5.2257277538096130e+00 1.1822219770066216e+01 1.1465674973895066e+01 1 0 0
41 1 2.4365766011133134e+00 1.4102269808154926e+01 8.7559208203368364e+00 -4 -2 -3
251 1 4.7299450750719307e+00 1.2678887379638873e+01 1.5831417368311733e+01 5 2 -2
40 1 4.8147971769404752e+00 1.4303559256618101e+01 1.2583096085260372e+01 2 -2 -1
88 1 2.7423589910797888e+00 1.3848031589890379e+01 1.3946626969406076e+01 11 3 -6
225 1 3.6919608518911078e+00 1.1726374011419022e+01 1.3406871433428140e+01 -2 2 -3
18 1 2.2681567471509188e+00 1.1654304571158033e+01 9.9244330101612022e+00 -3 -5 -5
126 1 8.0435874035563604e-01 1.5543906833021914e+01 1.0039443875517385e+01 -1 -2 -2
96 1 5.2778123368007108e+00 1.2057556800849682e+01 8.7705595332014248e+00 2 6 3
252 1 1.0296360932065038e+01 1.2714002822113716e+01 1.1663478613424058e+01 7 -4 -1
55 1 7.3809048480109016e+00 1.3082326594184607e+01 9.9817798359350434e+00 -4 1 -6
161 1 7.5102112747415228e+00 1.5946521040936762e+01 8.8014855728700816e+00 2 1 -8
91 1 9.6963110388072096e+00 1.4596882216910501e+01 9.7754266390733413e+00 -2 1 -2
4 1 8.1001679025171711e+00 1.4072275185321658e+01 1.1834133548683344e+01 -1 -7 -2
139 1 1.0525878770206923e+01 1.4894209684120160e+01 1.2042935386660218e+01 1 0 -1
179 1 6.8902753296593486e+00 1.4588278499298688e+01 1.4500408720313153e+01 0 -9 -5
246 1 8.2833377385277700e+00 1.2271447124884823e+01 1.5623876654888878e+01 0 -4 4
228 1 6.3928607685768171e+00 1.2224879025582066e+01 1.3533099205378363e+01 -2 1 0
236 1 9.4536614532295609e+00 1.3988537580151345e+01 1.4233759686974356e+01 -2 3 -4
211 1 9.3884694680477452e+00 1.1510872582478854e+01 1.3210934081903940e+01 2 -6 3
152 1 1.0288430910464129e+01 1.2503678706159523e+01 8.9171371400764592e+00 1 1 4
233 1 1.2366454206679190e+01 1.4670709642987820e+01 1.1163937104466154e+01 -4 1 -5
37 1 1.5927802392521121e+01 1.3145691991420492e+01 9.0022629995335812e+00 -3 2 3
72 1 1.3771746972403150e+01 1.5877924427387942e+01 8.9990119493788789e+00 -1 0 -7
150 1 1.3537432079781542e+01 1.5261377609400196e+01 1.4198502853025222e+01 -7 0 -2
90 1 1.1591812502406256e+01 1.2544700603128895e+01 1.3895775893182829e+01 -1 2 8
176 1 1.4549171296171508e+01 1.1236699485147035e+01 1.1392237854832157e+01 -3 4 -2
227 1 1.4550245074237143e+01 1.1145131679159892e+01 8.8644772468192521e+00 0 -4 -1
112 1 1.4612270498879482e+01 1.4025411707328608e+01 1.0783018492124175e+01 9 -3 -1
145 1 1.4350693748797418e+01 1.0822791344371009e+01 1.3874878600425582e+01 -2 -5 -5
71 1 1.5581227368127998e+01 1.2892708766273486e+01 1.4910263336383530e+01 -2 -3 -9
184 1 1.2474492630403269e+01 1.1414203312802261e+01 1.0464822693557206e+01 0 -1 5
32 1 1.4152267261709529e+01 1.3258314218920965e+01 1.2901907536548546e+01 1 -7 -5
76 1 1.2990097199660440e+01 1.3338456919278986e+01 8.6001966542146775e+00 -2 0 -2
206 1 1.3156174828896990e+01 1.2859956588822858e+01 1.5889368805019997e+01 -1 4 -4
190 1 1.1259513181248860e+01 1.1534093727961420e+01 1.5869190425853386e+01 6 0 2

Velocities

5 -3.3889294718042624e+00 -3.4396944412833563e-01 7.9067676558003033e+00
155 3.0487531773739995e+00 -2.1880142754519902e+01 1.7775040556113126e+01
231 1.2667928181752186e+00 -2.8361211145575975e+00 -1.3862907619920399e+01
163 2.1256827195304093e+00 -5.8524299337278496e+00 4.3879565838562966e+00
69 -2.1506041461465450e+00 2.5338919768093500e+00 1.9055596577860281e+00
68 2.1002491544555305e+01 -5.7980419393731877e+00 -7.6213280927741209e+00
217 1.1643743668325968e+00 7.3093368729530717e+00 3.8685259087886790e+00
175 1.0303562923162920e+01 -3.8023065499378936e+00 4.4313810329467396e+00
223 -1.0885865360944443e+01 -1.4002221556768004e+00 -3.9463330333043500e-01
64 -2.7953578971061332e-01 -3.7666440895302653e+00 -2.6207229252951634e+00
104 1.3647521546241139e+01 -1.4450073584099632e+01 1.1218295048740440e+01
194 1.4373861658063113e+01 2.0389488670871447e+00 -8.7609157471891486e+00
128 -5.4029747518166520e+00 -1.1838244454134578e+01 -1.2826865758370229e+01
213 -6.8469256656296755e+00 1.2296973216584683e-01 -4.1802583469619012e+00
50 4.8665543231645323e+00 2.5086827098861431e+00 1.4081178429305170e+01
22 3.1507581069422397e+00 8.4938411185165741e+00 -3.2319277685923140e+00
193 1.1787890924880251e+01 -3.1939019492225915e+00 -2.1836082744687366e+00
31 -1.0335990372779555e+01 -5.4098335096845158e+00 4.0513451607547668e-01
166 -7.1729677355642067e+00 1.4357434424852442e+00 7.1004485106466895e+00
45 -2.2325527591873207e+00 1.1118053046860927e+01 1.3755778611583079e+01
34 8.9254453580063426e+00 -8.3175728472616006e-02 6.7166217942944195e+00
196 1.3007023878572188e+01 -1.9446965077474760e+00 5.3205506480394167e+00
254 2.1114543249666604e+00 -7.1191877984966290e+00 -4.0323101841143263e+00
153 1.1544694992073644e+01 8.8143509269661440e+00 9.6316570651142652e-01
181 -7.6712630412678022e+00 1.4491980886998257e+00 -2.8355168144567968e+00
134 3.3326318710492799e+00 -1.1311524340805240e+01 8.0955703053223136e+00
6 5.9149730844569310e+00 3.1704465093817649e+00 -3.8039912804607201e-01
61 -5.0132088777829509e+00 5.8644360358877465e+00 5.3860628348974080e+00
250 6.3285393531146488e+00 -6.4291287317684080e+00 5.7926340417407713e+00
229 1.6742479266238973e+01 3.6841100717933708e+00 -2.5455529872709906e+00
26 7.9777399026800246e+00 6.0503874421010844e+00 2.7148581537527838e+00
110 -2.9476206590363589e+00 -9.5350662970324009e+00 -9.9107972231562211e+00
107 -1.5989248760302658e+01 7.9205584812156662e+00 1.4127539003434262e+00
214 -8.9613741180789237e+00 1.3631944335607782e+01 -1.3752295646218792e+01
173 -1.5480552848825246e+01 -1.2950829277665873e+01 -1.6473794757791067e+00
135 1.6475021503921763e+01 -2.8772246768470233e+00 -9.6166611317241752e+00
102 -5.8523505867319665e+00 7.7631130397919774e+00 1.8733461086550371e+01
198 1.1617033833927902e+01 3.4920802571404801e+00 -8.6780026055492243e+00
132 -7.5226570701774289e+00 -2.1414681982206762e+01 7.5284022031079871e+00
221 2.2756956395687507e+00 -6.8844305202564913e+00 -4.0650950855804266e+00
95 -6.2531947282275802e-01 -4.1155045999914597e+00 1.5305992075305552e+01
106 4.1517941757042918e+00 -5.8357498896368085e+00 -2.2727974070490276e+00
93 -9.4964628540293692e+00 -5.1576866894448345e+00 2.1819684265956920e+00
185 -1.5614631488726445e+01 -5.1204990059397959e+00 3.7289164568781263e+00
159 2.1516279385626735e+01 -7.1519139311751587e+00 -3.2033556124158400e+00
1 7.4390665154788858e+00 1.9744870433720997e+01 -6.5497756244169141e+00
199 -7.6661853574294103e-01 1.3992132320238410e+01 -4.8034701894709828e+00
103 6.6886319071108744e+00 1.0335643008357867e+00 -4.6729762728072668e+00
216 -1.3769042522134583e+01 1.4969227040146867e+01 -2.4012292335408727e+00
183 1.0318101386321834e+01 -3.6377818331532752e+00 4.3912945348121539e+00
244 -2.5248502593969512e+01 -3.5722872687671900e+00 3.0000503992385932e+00
164 -8.7898918377653601e+00 3.7733947646702726e+00 4.8306802970119413e+00
44 4.0102220785393872e+00 -1.1133519467190895e+01 1.5294042310268068e+00
220 9.3909631242938651e-01 7.3475501696830712e+00 -1.4257808701845092e+00
237 1.1187189924134774e+01 -3.6448831978226646e+00 -1.4364686299103537e+00
58 3.1837077775988898e+00 -8.8170449614076389e+00 -1.1669281057320008e+01
129 6.4646459767513429e+00 -4.4975315940455598e+00 2.3862953675625168e-01
188 -1.0364636217260204e+01 -3.2852750834877327e+00 -1.6745338747722376e+00
94 -2.7494792756170625e+00 -3.7330973194441603e+00 -1.0496413772211788e+01
82 2.1288206434455197e+00 -9.1720518187112106e+00 7.0613175552359921e+00
114 -5.7315756996373812e-01 2.0171304416948268e+00 -1.1436290309429429e+01
15 3.0729094146041797e-01 7.3322252841475537e+00 6.2621958229332462e+00
234 -8.6564944167427154e+00 -5.5985675505532528e+00 -6.0115113707159040e-01
210 -7.7810625603139960e-01 7.3005346894203607e+00 5.1051430840244230e+00
13 -8.1812640593985719e+00 -1.8598949558775113e+00 -8.2484010404665185e+00
77 4.8518894663654759e+00 1.0172813611824314e+01 -6.0237534015792216e-01
100 5.7429761749179988e+00 -3.0924159569793391e-01 -7.0255033131657330e+00
81 6.6357043780476408e+00 8.4154271949701265e+00 -4.3156875314172796e+00
249 6.0009874823282692e+00 6.1251081663847655e+00 1.2439502365805753e+01
238 5.5294121037161021e+00 -6.8754573836603008e+00 4.8544262323481124e+00
222 3.6869784102132432e+00 -4.1531231530630146e+00 -1.0291634182544481e+01
23 1.1306712242998311e+00 6.8337353748006038e+00 -2.4541803033823375e+00
180 -9.0555313396808295e+00 -1.2077570961337397e+01 4.6791033882326332e+00
138 -7.9698913646224048e+00 8.3367246191655813e+00 -9.5723458115251496e+00
99 -7.0460061280854758e+00 -5.3329312156955337e+00 -8.1682553022300759e+00
191 6.5434437234911798e+00 1.3517164642918708e+01 7.8978751062899235e+00
207 -6.4878757539894707e+00 -1.6700731038678569e+00 3.4079241745540969e+00
47 8.6601450360898422e+00 -7.0569261999558508e-01 -9.9407286018181189e+00
56 -2.3121116208189569e+01 -1.3756529840331034e+01 -1.8256232165320474e+00
154 -1.1968782800443223e+00 3.9452805230029497e-01 -2.8473990689901143e+00
11 1.4352407521585437e+01 9.2014287091204885e+00 4.8569545072834757e+00
172 -2.4412335823989775e+00 3.4151026421083910e+00 -1.1935400651570387e+01
63 -1.0218550361203528e+01 -3.9747742062963902e+00 3.4204799978400207e+00
203 1.0390469983185188e+01 1.3631391535343168e+01 1.6103519386610785e+01
84 1.6054444633493674e+01 1.9798203433772468e+00 1.5294383839961765e+00
122 1.0858338903811235e+01 1.3948483559998029e-01 -9.0011153477849142e+00
212 8.5384910325166725e+00 -2.2354544654253299e+01 1.8022832976575653e+01
189 2.7081761470138684e+01 -1.0474975673342765e+01 -4.5686089323638752e+00
245 4.2648875620601903e+00 4.1082220336779827e+00 2.0198201559239419e+00
21 6.1520803058656055e+00 6.3198672894835592e+00 1.1635269474970693e+01
109 2.4637229632116620e-01 -2.8965012413881173e+00 4.0288457626834955e+00
142 9.4405939930481164e+00 4.2307488415650978e+00 -6.4600347072952671e+00
208 6.9410135338857213e+00 -1.7572377982660998e+00 1.4987486644847872e+00
19 -1.1308596540071303e+01 3.5132446819610879e+00 8.5917845519538574e+00
97 -3.3527559164486687e+00 -7.6270033198019735e+00 -8.8603561827612598e+00
116 -6.1843074788571295e+00 1.9978678454045088e+01 -1.1635441874386665e+01
157 3.5866853597188109e+00 -1.5546597444645558e+00 1.2686341489055419e+01
242 2.5715288941590173e+00 -1.1026040309771203e+01 3.7429719429234645e+00
241 -1.5185849668496754e+01 -1.0290005546317907e+01 -1.0813733764611113e+01
85 1.8064599097022004e+01 1.1057998272349959e+01 -1.1251205727460038e+01
243 9.2767472282825902e-01 1.1674903403108274e+01 -1.2287812166209434e+01
156 -6.1516393576494153e+00 1.7454256750163917e+00 6.4980588685481298e+00
202 1.0170811038666313e+01 -1.1649621777489111e+01 -1.6479896551081463e-01
43 1.6647612634320328e+01 3.8317869772615292e+00 8.5576505060480557e+00
226 1.6888527509854443e+00 1.1246141190676950e+01 -1.3491460646197668e+01
162 -3.0052119749206350e+00 -1.6358468416923401e+01 7.0282385140302583e+00
219 6.1024981476062683e+00 2.1403206060820391e+01 1.1892100088225979e+01
204 -7.3778977586623196e+00 -2.1042203231220440e+00 -9.9327691731051555e+00
209 -1.4744938479362062e+00 -3.0068469909776834e+00 -1.1797769577838116e+01
147 -1.5470532852978202e+01 -1.7054201280434400e-01 -1.4767543616477948e+01
46 -3.6917862689515184e+00 -2.6770941963577921e-01 -1.8481160019709890e+01
70 -2.8202970796991087e+00 1.3110307816590796e+01 -4.3619408142154548e+00
36 -2.8912425549579037e+00 -8.6115669559256567e+00 1.5448229712178851e-03
169 1.2368639601689093e+00 -3.2121216834966644e+00 -2.8332349653507301e+00
224 4.6439013174132651e+00 1.6607590494181654e+01 -2.2356404497175596e+01
54 -1.4986966927921525e+01 6.6746221181282850e-01 1.6818834003278216e-01
256 3.0086681536928039e+00 2.3337304173917697e+00 -2.4058195340375086e+00