LAMMPS data file via write_data, version 1 Feb 2019, timestep = 500000

256 atoms
1 atom types

4.5875106270591015e-01 1.5725248937294467e+01 xlo xhi
4.5875106270591015e-01 1.5725248937294467e+01 ylo yhi
4.5875106270591015e-01 1.5725248937294467e+01 zlo zhi

Masses

1 26.982

Atoms # atomic

8 1 4.3936662201268462e+00 2.5494058261612120e+00 2.1089302467003384e+00 0 0 0
19 1 2.3270229877905888e+00 4.3760144669954704e+00 2.3789431084485932e+00 0 0 0
66 1 2.7263827875462923e+00 2.2772375104670450e+00 4.2993580022650182e+00 0 0 0
72 1 4.2899158969730546e+00 2.1353403425505437e+00 6.4611261102757238e+00 0 0 0
83 1 2.3242756631684074e+00 4.4570974793736484e+00 5.9387683191572878e+00 0 0 0
85 1 4.3352274977511032e+00 4.1395027873350649e+00 4.3119201649776819e+00 0 0 0
68 1 6.0560844774133504e-01 2.4826893635176628e+00 5.9532961165124263e+00 0 0 0
4 1 5.8570561892619011e-01 2.3350351676500392e+00 2.3823909565657102e+00 0 0 0
130 1 2.2945986284519879e+00 2.3544709165949387e+00 8.0670926732036801e+00 0 0 0
17 1 9.0955347032908951e-01 4.1020283763481880e+00 5.8067145303866585e-01 0 0 0
81 1 5.6513196425256884e-01 4.4379852880083375e+00 4.1412319812886533e+00 0 0 0
69 1 4.2978541583761700e+00 6.1471970706913970e-01 4.1820041165148520e+00 0 0 0
145 1 5.1721966504118444e-01 4.4468259017288858e+00 7.9388214775437707e+00 0 0 0
149 1 4.0966908369621917e+00 4.1976928313987081e+00 7.9569243254546675e+00 0 0 0
2 1 2.7886463199485307e+00 2.3813959214684148e+00 5.4270852513723966e-01 0 0 0
70 1 6.3532164252590047e+00 2.4870715535518806e+00 4.0800758478332924e+00 0 0 0
87 1 6.2470860810658975e+00 3.9974505593028464e+00 6.3306789704348772e+00 0 0 0
12 1 8.2333006788794592e+00 2.5520492169456261e+00 2.4430382635102137e+00 0 0 0
23 1 6.2215964615562589e+00 4.2129657265234943e+00 2.3007543486864082e+00 0 0 0
76 1 8.1165016712860627e+00 2.2901533192287618e+00 6.2089944264666599e+00 0 0 0
89 1 8.1075459310960660e+00 4.7849111081278819e+00 4.6117666012574183e+00 0 0 0
91 1 1.0059153638307947e+01 4.2721518613542582e+00 6.1719752620833521e+00 0 0 0
27 1 1.0047070037435340e+01 4.4276071549403788e+00 2.4390912007468115e+00 0 0 0
74 1 1.0076952274035268e+01 2.5632543513239927e+00 4.5699854045655606e+00 0 0 0
73 1 8.1674983959149170e+00 7.1993540725396010e-01 4.1648611482530251e+00 0 0 0
11 1 9.8255936804822142e+00 4.7328599964962809e-01 2.4044803444552656e+00 0 0 0
7 1 6.2215791565055758e+00 4.7523085282628585e-01 2.3328298046623077e+00 0 0 0
138 1 9.9565493759942889e+00 1.9248178439911843e+00 7.8777922749692051e+00 0 0 0
10 1 9.8520736483585729e+00 2.5626782954878702e+00 6.2695929602074563e-01 0 0 0
25 1 8.2583525956653325e+00 4.1763237153565242e+00 6.1187355949904187e-01 0 0 0
153 1 8.1370852783967464e+00 4.2939733639909168e+00 7.9341546163768317e+00 0 0 0
129 1 1.5680974213389455e+01 5.9681462500285687e-01 7.8913130691162889e+00 -1 0 0
14 1 1.3588468436101536e+01 2.5248115564985363e+00 5.3495684105101426e-01 0 0 0
157 1 1.2115094953921943e+01 4.1399827690669762e+00 7.9016003081983213e+00 0 0 0
16 1 1.2115877046701240e+01 2.4536543887685198e+00 2.4197062004362424e+00 0 0 0
31 1 1.3910775502105150e+01 4.4881558943664128e+00 2.2672249181777930e+00 0 0 0
78 1 1.3933106312935074e+01 2.4345118897574878e+00 4.3610635518910330e+00 0 0 0
80 1 1.1857617925059618e+01 2.1791157036229327e+00 5.9110739099999590e+00 0 0 0
93 1 1.1800930138869504e+01 4.4853777546977431e+00 4.1929047703714772e+00 0 0 0
95 1 1.3797153778346189e+01 4.4339334416022780e+00 5.8468099900163875e+00 0 0 0
1 1 1.5448978948354796e+01 5.2760167769645250e-01 6.7837913666715122e-01 -1 0 0
142 1 1.3967494381690823e+01 2.6238976832594152e+00 7.7457200804025979e+00 0 0 0
13 1 1.1993879802978892e+01 5.1765824416405892e-01 6.1642142816782819e-01 0 0 0
141 1 1.1911034736570812e+01 4.7697481240886630e-01 8.0677017524202626e+00 0 0 0
146 1 2.3899073349675959e+00 6.0906164991413778e+00 7.6578083885677168e+00 0 0 0
161 1 4.7906003238413164e-01 8.1519016896224699e+00 8.0694180368316584e+00 0 0 0
24 1 4.2920009612032981e+00 5.6744909183062369e+00 2.5134316739415739e+00 0 0 0
82 1 2.4700123860187206e+00 6.3671543059944637e+00 4.2129919443123480e+00 0 0 0
35 1 2.5016718490119376e+00 7.9328691455371825e+00 2.5514453664495500e+00 0 0 0
88 1 4.4724756944261701e+00 6.1353253499858562e+00 6.0923195469152471e+00 0 0 0
99 1 2.4079648251668280e+00 8.0132115318954842e+00 6.0749281924368645e+00 0 0 0
101 1 4.4132429787539618e+00 7.7691204595945624e+00 4.3767991045980228e+00 0 0 0
98 1 2.3023019055718557e+00 9.7072145176714386e+00 4.3439365210912069e+00 0 0 0
40 1 4.1274644693945302e+00 9.7792993863545696e+00 2.3966447314920911e+00 0 0 0
104 1 4.2473092170487465e+00 9.7696478428624935e+00 6.5979688909698355e+00 0 0 0
36 1 4.5937593323551340e-01 9.8923678654603222e+00 2.5255325488057876e+00 0 0 0
162 1 2.2230159791423314e+00 9.8114041848629476e+00 7.9031050784356873e+00 0 0 0
18 1 2.6009203070684359e+00 6.2698034790617143e+00 4.8948283916406510e-01 0 0 0
34 1 2.5410776438116174e+00 9.8538801885388452e+00 5.4246283509193560e-01 0 0 0
86 1 6.3260838730937072e+00 6.1493872387718982e+00 4.5154530089582749e+00 0 0 0
28 1 7.9587319951374003e+00 6.1717196241493388e+00 2.4669261534190583e+00 0 0 0
39 1 6.0575077560405424e+00 7.9982915498763605e+00 2.4969788006700480e+00 0 0 0
90 1 1.0061835137824904e+01 6.4198302136808296e+00 4.1794662772611293e+00 0 0 0
92 1 8.0294179917190611e+00 6.4246932936716412e+00 6.2557615098287602e+00 0 0 0
102 1 6.0659396813984250e+00 1.0093567389741104e+01 4.4466469198426610e+00 0 0 0
103 1 5.9721769964723563e+00 8.2278576222754722e+00 6.2971849532417430e+00 0 0 0
105 1 8.1761676776439494e+00 8.5869516268006016e+00 4.5650302129792451e+00 0 0 0
107 1 1.0123984296461181e+01 8.3138405913415312e+00 6.2258050095749953e+00 0 0 0
43 1 9.9909334047848120e+00 8.1643344298057432e+00 2.4629418214528496e+00 0 0 0
108 1 7.8083303401524038e+00 1.0371219619655271e+01 6.4097982204193071e+00 0 0 0
44 1 8.1813370742998046e+00 1.0052680874364139e+01 2.2189863620086792e+00 0 0 0
106 1 9.8490164264006026e+00 1.0412759044208865e+01 4.3821143869041812e+00 0 0 0
26 1 9.3087277772463537e+00 6.2151515740968941e+00 5.2420477340281635e-01 0 0 0
169 1 8.1675419219442702e+00 8.1861986961488693e+00 7.9591126884891024e+00 0 0 0
22 1 6.2923398365781003e+00 6.2610368512444667e+00 6.9481907026724099e-01 0 0 0
41 1 8.0561586356630031e+00 8.3371755894464350e+00 7.3026955772020608e-01 0 0 0
154 1 1.0033620607263195e+01 6.4436541587294593e+00 8.0140033510963846e+00 0 0 0
46 1 1.4229182090625539e+01 1.0352553672954134e+01 7.8008933410917769e-01 0 0 0
174 1 1.3724954702528787e+01 1.0216570652926123e+01 7.9615051019361323e+00 0 0 0
100 1 1.5653876353618156e+01 9.7612815183254256e+00 6.0669937602348059e+00 -1 0 0
97 1 1.5519760853907759e+01 8.0493439143051386e+00 4.5061987996199750e+00 -1 0 0
20 1 1.5685611309565036e+01 6.2913723805552042e+00 2.2581903355598199e+00 -1 0 0
84 1 1.5720363301344971e+01 6.0964941866443807e+00 6.2414195430101582e+00 -1 0 0
32 1 1.1913790671858347e+01 6.3190732088128128e+00 2.0885722363525483e+00 0 0 0
94 1 1.3877938063995131e+01 6.1043829029469059e+00 4.0051321864532188e+00 0 0 0
48 1 1.1657379783674411e+01 1.0035324334727321e+01 2.5754076452648857e+00 0 0 0
96 1 1.1705210910249690e+01 6.2153935758733541e+00 6.1449033974123326e+00 0 0 0
110 1 1.3486077413067079e+01 9.7302619802520276e+00 4.2780613002939525e+00 0 0 0
112 1 1.1821565091835947e+01 1.0384195073157525e+01 6.1102617357207318e+00 0 0 0
47 1 1.3579514262285862e+01 8.1424693348394115e+00 2.3341481460258398e+00 0 0 0
109 1 1.1892293414000132e+01 7.9907102577035101e+00 4.3582597179894904e+00 0 0 0
111 1 1.3538824530985735e+01 8.3172104932799797e+00 6.5726682700830130e+00 0 0 0
158 1 1.3747192075938845e+01 6.0824039036926179e+00 7.8111384775085524e+00 0 0 0
173 1 1.1765318516092570e+01 8.1506777992327244e+00 8.0751090498441513e+00 0 0 0
177 1 4.8542925418646021e-01 1.1607681399866824e+01 7.8040388210640668e+00 0 0 0
116 1 5.9576054707705883e-01 1.3342782064298092e+01 5.7803452959249908e+00 0 0 0
65 1 6.2117569684007712e-01 1.5596657577996165e+01 4.0506182671142810e+00 0 -1 0
3 1 2.2662043147216275e+00 1.5676968696819806e+01 2.2049571030219832e+00 0 -1 0
52 1 6.6231745973010114e-01 1.3339637312755105e+01 2.6449702048795296e+00 0 0 0
67 1 2.3913967236948506e+00 1.5661006237563164e+01 6.1168097474048482e+00 0 -1 0
115 1 2.7825708465929320e+00 1.1774851943245672e+01 6.5466858312288396e+00 0 0 0
56 1 4.2599399401812956e+00 1.3791384295087578e+01 2.2446665104400179e+00 0 0 0
120 1 3.8833096264555476e+00 1.3673039474515004e+01 6.0210183555950945e+00 0 0 0
51 1 2.1832665297726033e+00 1.1494985997427605e+01 2.4249602552099896e+00 0 0 0
117 1 4.1493270673974418e+00 1.1635744208438304e+01 4.5822444314893449e+00 0 0 0
114 1 2.6176952125540338e+00 1.3339415624965373e+01 4.3747950043594717e+00 0 0 0
75 1 9.6431084720517717e+00 1.5230278498614620e+01 6.0862824279435586e+00 0 -1 0
59 1 9.5671826134377085e+00 1.2171316492836144e+01 2.0368454482658471e+00 0 0 0
118 1 6.1036752858263830e+00 1.3835699196910909e+01 4.2080820565299408e+00 0 0 0
121 1 7.9580880636061888e+00 1.1968677500668040e+01 4.1952516723541518e+00 0 0 0
123 1 9.8488094210372310e+00 1.2255950700157939e+01 6.3060057537476126e+00 0 0 0
55 1 5.9060175565059128e+00 1.1927288613301190e+01 2.5297610083802189e+00 0 0 0
119 1 5.9760292229650016e+00 1.1910720747145891e+01 6.3878945124966773e+00 0 0 0
60 1 7.8584491438639867e+00 1.3792345029270681e+01 2.2849839707535180e+00 0 0 0
124 1 7.9574751922941829e+00 1.3865904513662915e+01 6.3193911941830487e+00 0 0 0
122 1 9.8333028316326825e+00 1.4131711252900587e+01 4.2128399347096952e+00 0 0 0
71 1 6.1605882836181056e+00 1.5658663680162128e+01 5.9739847463836604e+00 0 -1 0
182 1 5.8215157594514881e+00 1.3718133675716786e+01 8.0477410944340768e+00 0 0 0
137 1 7.8387196935012842e+00 1.5677948844979682e+01 8.0431116140888292e+00 0 -1 0
54 1 6.3099036391887564e+00 1.3885814836953575e+01 5.7641913878647699e-01 0 0 0
77 1 1.2092132865320643e+01 1.5663134041901447e+01 4.2793146959386714e+00 0 -1 0
79 1 1.3902055335770889e+01 1.5659996261429068e+01 5.9225265042689896e+00 0 -1 0
125 1 1.1936532578619214e+01 1.2241881458335516e+01 4.2453622996220890e+00 0 0 0
64 1 1.2018947371659713e+01 1.3919950110615915e+01 2.2629614265073510e+00 0 0 0
127 1 1.3733109771944822e+01 1.1977599615701742e+01 6.2692584790093742e+00 0 0 0
63 1 1.3827171887612536e+01 1.2017595276625862e+01 2.1646491922789144e+00 0 0 0
126 1 1.3900525703205997e+01 1.3739338586064271e+01 4.3892453779454348e+00 0 0 0
15 1 1.3626441730211770e+01 1.5682056274723362e+01 2.4499477038124526e+00 0 -1 0
113 1 1.5244509131017452e+01 1.1336171234922713e+01 4.2038476432867906e+00 -1 0 0
128 1 1.1979215305325045e+01 1.4105454136012721e+01 6.1112926945993991e+00 0 0 0
61 1 1.1751409211027816e+01 1.2004584127480832e+01 8.2454031029157548e-01 0 0 0
190 1 1.4253278301482677e+01 1.3855968069475313e+01 7.8729896937150299e+00 0 0 0
189 1 1.1945950959152704e+01 1.2120749299654520e+01 8.0749388727219635e+00 0 0 0
136 1 4.2661170078552786e+00 2.3846133009380104e+00 1.0104271122290680e+01 0 0 0
147 1 2.4727433444424469e+00 4.2085834720632089e+00 9.9795325511786572e+00 0 0 0
194 1 2.2897172623448978e+00 2.1974969586701172e+00 1.2273563500976721e+01 0 0 0
200 1 4.6567159255794497e+00 2.2864208621966204e+00 1.3821393516930243e+01 0 0 0
211 1 2.5191657943592132e+00 4.2870519483779903e+00 1.3793467899920266e+01 0 0 0
213 1 4.3130493932572680e+00 4.2674900469307664e+00 1.2058668634031761e+01 0 0 0
195 1 2.0103828272473825e+00 4.6785264272188343e-01 1.4080396327762948e+01 0 0 0
197 1 4.3526125988933995e+00 4.8363455691107560e-01 1.1910343433442723e+01 0 0 0
196 1 5.1436926242343639e-01 2.3243489841045966e+00 1.4076910551815029e+01 0 0 0
132 1 4.9336743499572933e-01 2.2774615791922979e+00 9.6677148258002354e+00 0 0 0
209 1 6.2173297414964424e-01 3.6620477485557235e+00 1.2040791048929403e+01 0 0 0
21 1 4.5286302428903094e+00 4.4923010420711771e+00 1.5519741358502777e+01 0 0 -1
131 1 2.4135669639300241e+00 5.4560366362620982e-01 1.0074520161583262e+01 0 0 0
215 1 6.2579980850344548e+00 4.2318440868079135e+00 1.3735313579463131e+01 0 0 0
140 1 8.1686319031963706e+00 2.4511163533081133e+00 9.7479888478184904e+00 0 0 0
151 1 6.1439412156134496e+00 4.2673003680566950e+00 9.9821890935715025e+00 0 0 0
155 1 9.9779884998622848e+00 4.4003717393963697e+00 9.8388545895889905e+00 0 0 0
198 1 6.5219826571314323e+00 2.3144887675258579e+00 1.1787018776282945e+01 0 0 0
202 1 1.0279344129431905e+01 2.2544555424421988e+00 1.1897407864596584e+01 0 0 0
204 1 8.2252110150418289e+00 2.4275754295002239e+00 1.3630241082966997e+01 0 0 0
217 1 8.3978863696260788e+00 4.2299134360759894e+00 1.1737013809652009e+01 0 0 0
219 1 9.7029134556962866e+00 4.0831055198378543e+00 1.3888662355830292e+01 0 0 0
201 1 8.4256756375560116e+00 4.8403684573642636e-01 1.1988753824230315e+01 0 0 0
203 1 1.0268780571411263e+01 6.2985047065446054e-01 1.3929042361924704e+01 0 0 0
134 1 6.1682227238712937e+00 2.2579172146544302e+00 8.4150226217376769e+00 0 0 0
6 1 6.1781611641022884e+00 2.4228201954312230e+00 1.5713388093728181e+01 0 0 -1
139 1 1.0306191393519654e+01 6.1735729877868040e-01 1.0349608659362865e+01 0 0 0
199 1 6.3864748495223163e+00 7.3942296268300090e-01 1.3661191444556664e+01 0 0 0
193 1 1.5427537578706154e+01 6.7123719396939530e-01 1.1938129997390558e+01 -1 0 0
144 1 1.2272855501682411e+01 2.6584423155271049e+00 9.8960971481502362e+00 0 0 0
159 1 1.3900477130096835e+01 4.5232088184444992e+00 1.0154850282252905e+01 0 0 0
206 1 1.3802072588280147e+01 2.3743749915657988e+00 1.2164509302374523e+01 0 0 0
208 1 1.1878238269915148e+01 2.3355447204948945e+00 1.3905398348247658e+01 0 0 0
221 1 1.1943806431286475e+01 4.4169731676538788e+00 1.1842844445417899e+01 0 0 0
223 1 1.3760826571387739e+01 4.4534446134541970e+00 1.3843188141640756e+01 0 0 0
143 1 1.3982420349931587e+01 7.4628248129203700e-01 9.5473140071526110e+00 0 0 0
207 1 1.3863038371919895e+01 7.9388234020222970e-01 1.4026566176314791e+01 0 0 0
29 1 1.1767413537239285e+01 4.3522246164862501e+00 1.5581198722132378e+01 0 0 -1
33 1 6.0108888698597918e-01 7.8996728459170198e+00 1.5684856985002781e+01 0 0 -1
152 1 4.1608735759472637e+00 5.8805802294841509e+00 1.0063700206116820e+01 0 0 0
163 1 2.3512902662127102e+00 8.1545460347540946e+00 9.7958081554917023e+00 0 0 0
210 1 2.1145558328817859e+00 5.9658235985533219e+00 1.1630856309506580e+01 0 0 0
216 1 4.1932454373214334e+00 6.2580709705704356e+00 1.3676804695404567e+01 0 0 0
227 1 2.1553317626953330e+00 7.7635662482075878e+00 1.3698950189969214e+01 0 0 0
229 1 4.0316532620310657e+00 8.1226902221573134e+00 1.1771136772015172e+01 0 0 0
226 1 2.0853075280363580e+00 1.0078004224363099e+01 1.1997294354942376e+01 0 0 0
168 1 3.9916110830822067e+00 9.9362549010860874e+00 1.0220743536878913e+01 0 0 0
232 1 4.2536002993942006e+00 9.7157536883757949e+00 1.3511814227458313e+01 0 0 0
212 1 5.5658245182175226e-01 6.0106833293257989e+00 1.3935322913937874e+01 0 0 0
148 1 4.9574091908291251e-01 6.3947958540861993e+00 9.6286280779794353e+00 0 0 0
37 1 4.1239303306094399e+00 7.9272477921094886e+00 1.5451066638097039e+01 0 0 -1
165 1 4.2071063028646769e+00 7.7399669958663218e+00 8.2487872706780436e+00 0 0 0
170 1 1.0037850363943726e+01 1.0164266087614550e+01 8.1498019973893019e+00 0 0 0
156 1 8.0066185929833011e+00 6.2974235887524310e+00 9.7662489668970807e+00 0 0 0
230 1 6.3270163221912448e+00 1.0320484984997695e+01 1.1754313652875116e+01 0 0 0
167 1 6.0101718963854465e+00 8.0722651825496730e+00 1.0033530817609240e+01 0 0 0
214 1 6.0745432313754941e+00 5.8686235909503113e+00 1.1966837131342640e+01 0 0 0
220 1 7.9465000857088182e+00 5.9253720873008291e+00 1.3671979351644907e+01 0 0 0
171 1 1.0027771186131616e+01 8.2753165589398456e+00 1.0306922218312483e+01 0 0 0
172 1 8.1115912662635914e+00 9.8349857316996356e+00 9.9056575018821249e+00 0 0 0
218 1 9.9354757883028526e+00 6.2658881478570470e+00 1.1555964675883438e+01 0 0 0
231 1 5.9935542357976619e+00 7.7576812153148493e+00 1.3897681184036752e+01 0 0 0
233 1 7.6566584159307789e+00 7.9970724797852464e+00 1.1995765175037228e+01 0 0 0
234 1 1.0463703261181841e+01 9.9845798629672871e+00 1.2490698166288620e+01 0 0 0
235 1 9.4807575023667674e+00 7.8309878463838318e+00 1.3743220059367168e+01 0 0 0
236 1 7.6868571087854072e+00 9.9031825144455823e+00 1.3672821393889897e+01 0 0 0
42 1 1.0085703941467500e+01 9.7478150360716675e+00 1.5638246074237596e+01 0 0 -1
38 1 5.9028802355153402e+00 9.7819945068409702e+00 1.5578272559851253e+01 0 0 -1
150 1 6.1698984004163115e+00 5.8058374181799133e+00 8.1869727671673083e+00 0 0 0
166 1 6.1016009859826390e+00 9.9709786122697075e+00 8.4718877937316677e+00 0 0 0
225 1 1.5416358607472805e+01 8.4986706359159179e+00 1.1782624400924323e+01 -1 0 0
164 1 1.5698740766294900e+01 1.0138245072360341e+01 9.7001784918726237e+00 -1 0 0
228 1 1.5574386816994156e+01 1.0141671864706048e+01 1.3851108830769121e+01 -1 0 0
238 1 1.3621794928376488e+01 1.0331738571253688e+01 1.2003172689727450e+01 0 0 0
240 1 1.2039210298211007e+01 1.0147876163334836e+01 1.4285572730792492e+01 0 0 0
160 1 1.2012620107994596e+01 6.2506910189288494e+00 1.0054476920529773e+01 0 0 0
175 1 1.3656153750349009e+01 8.0907373453036104e+00 1.0055625463301631e+01 0 0 0
176 1 1.1945363895733554e+01 9.9124371510809972e+00 9.9953090919880374e+00 0 0 0
222 1 1.4270541882502329e+01 6.3304955988127274e+00 1.2020519622165899e+01 0 0 0
224 1 1.1757697747870115e+01 5.9682805977341244e+00 1.3923790492732618e+01 0 0 0
237 1 1.2117358156330113e+01 7.8870788735987372e+00 1.2247648509478438e+01 0 0 0
239 1 1.3798775706247898e+01 8.0266088164550560e+00 1.4010871965448963e+01 0 0 0
30 1 1.3902484438781599e+01 6.0881058362388751e+00 1.5576753015194328e+01 0 0 -1
45 1 1.1518408167353950e+01 7.9924698365734539e+00 1.5492933209290953e+01 0 0 -1
5 1 4.4577064391497307e+00 1.5667362686337412e+01 1.5391953199240017e+01 0 -1 -1
50 1 2.3911166804932806e+00 1.3887652165585848e+01 1.5687230771896257e+01 0 0 -1
53 1 4.1443695815194115e+00 1.1862829641694201e+01 1.5720640955854108e+01 0 0 -1
245 1 4.4506501594059769e+00 1.1636150431097391e+01 1.1691949506072156e+01 0 0 0
184 1 4.4797569874999947e+00 1.3701625092737050e+01 1.0211908754931486e+01 0 0 0
248 1 4.5561589855172171e+00 1.3962038464117853e+01 1.3576510820028119e+01 0 0 0
179 1 1.9964319010919058e+00 1.2072884278763599e+01 1.0201151410589656e+01 0 0 0
242 1 2.4830211211712125e+00 1.3555289878828983e+01 1.1742076539204952e+01 0 0 0
243 1 2.6217535913711463e+00 1.1723293863338935e+01 1.3509493324352231e+01 0 0 0
133 1 4.5271341344009297e+00 1.5484957222718176e+01 8.1250919065020000e+00 0 -1 0
181 1 3.9368448831159322e+00 1.2076471239927944e+01 8.3670047969380743e+00 0 0 0
178 1 2.2297073260914990e+00 1.4086704698861858e+01 8.2724090197230389e+00 0 0 0
49 1 8.9779061381859160e-01 1.2008000470050078e+01 1.5385169742392979e+01 0 0 -1
135 1 6.1992140347421270e+00 1.5289509810828331e+01 1.0001504824288411e+01 0 -1 0
9 1 7.9774027670006342e+00 1.5713836991015594e+01 1.5649763649651817e+01 0 -1 -1
187 1 1.0080301676010293e+01 1.1878893524772831e+01 1.0029976854405369e+01 0 0 0
251 1 9.9597968792063121e+00 1.1851050333779817e+01 1.4189914451664528e+01 0 0 0
183 1 6.5718974954761444e+00 1.1944509435452535e+01 1.0099810455387470e+01 0 0 0
252 1 7.8687707168447734e+00 1.3983179888006063e+01 1.3924822533322743e+01 0 0 0
249 1 8.1834169208877547e+00 1.1902256509271083e+01 1.2064658728396363e+01 0 0 0
246 1 6.4824044017037510e+00 1.3901873364883883e+01 1.1801330328381678e+01 0 0 0
186 1 1.0154335448142145e+01 1.3996153293234809e+01 8.2554614799961623e+00 0 0 0
247 1 6.1457001885309595e+00 1.1868790039599144e+01 1.3861385094199790e+01 0 0 0
188 1 8.2240858681717128e+00 1.3933135478735245e+01 1.0271622240559289e+01 0 0 0
250 1 1.0348202825027204e+01 1.3702713766394634e+01 1.2040234071396693e+01 0 0 0
185 1 8.1960420323083483e+00 1.2066466783966288e+01 8.2895177935494040e+00 0 0 0
57 1 7.6800306106351250e+00 1.1591901140376866e+01 1.5549287225838725e+01 0 0 -1
58 1 1.0051251702343457e+01 1.4122465478470346e+01 1.5644977044721784e+01 0 0 -1
244 1 1.5695201337649955e+01 1.3863749745519964e+01 1.3571814491034772e+01 -1 0 0
192 1 1.2320437023350124e+01 1.3895605630662335e+01 9.9390491436965291e+00 0 0 0
256 1 1.1961993724121491e+01 1.3812360694940121e+01 1.3911350586696987e+01 0 0 0
205 1 1.2342298971907471e+01 1.5471392343002535e+01 1.2189140986751269e+01 0 -1 0
254 1 1.3885299408414124e+01 1.3673678167155884e+01 1.1689293565188660e+01 0 0 0
253 1 1.1954963749253121e+01 1.2004782301496757e+01 1.1963043091595328e+01 0 0 0
191 1 1.3795893761523374e+01 1.2062333535785804e+01 9.6665742319388634e+00 0 0 0
241 1 1.5467670409024461e+01 1.1495557566307422e+01 1.1870647372347388e+01 -1 0 0
255 1 1.3699935572920630e+01 1.1840847075962202e+01 1.3905794289251673e+01 0 0 0
180 1 1.5660624734553961e+01 1.4247505697998161e+01 9.9926533828056172e+00 -1 0 0
62 1 1.3949076008657716e+01 1.3738321343074929e+01 1.5630201432321229e+01 0 0 -1

Velocities

8 -8.9403840930858998e+00 -4.4961595442037190e+00 2.9475135019394094e-01
19 4.9150931728511775e+00 5.9443183754520161e+00 5.6676016735511014e+00
66 7.9103670185015131e+00 -8.2219446083431436e+00 2.0761887553900333e+00
72 -8.3208318141414797e+00 -1.1990079883882474e+00 1.1253017280743466e+01
83 4.8073950695307746e+00 -9.9912771800301865e+00 1.0327797078848537e+01
85 -4.4968258573489406e+00 -3.4664599791956876e+00 7.9830127887779980e+00
68 6.5707685028523022e-01 2.6910867213943570e+00 5.2173088394633957e+00
4 3.7478335403347901e-01 1.6499961696471299e+01 -5.2848832986494960e+00
130 -1.0806554017070154e+01 1.4630005129909152e+01 6.2644362046774500e+00
17 1.5597452833536036e+00 1.4107705654344416e+01 -3.4890284804811991e+00
81 -2.0552223735455581e+00 6.3887492586524175e-01 -1.7125912428995038e+00
69 1.7160717310841491e+00 -1.8924009410302123e+00 5.3575773185981515e+00
145 7.6949356145298609e-01 1.5250650263184709e+00 -3.9945646618538904e+00
149 1.1459870026405637e+01 4.2317979183061070e+00 1.1524398355061239e+01
2 7.1937316541068110e+00 -4.7845160286303408e+00 1.0638138102609192e+01
70 2.3360701893708143e+01 -1.8552219848619798e+00 -1.4374606492268658e+00
87 1.2611012444008509e+01 -6.2265475588542598e+00 -6.3684183582954814e+00
12 -1.0380163348716426e+01 5.0397682068579757e+00 1.0048517920767381e+01
23 -7.6854382243255506e+00 -1.2340724584927539e+01 1.0743747341063036e+01
76 2.7733518689241659e+00 -1.1112139400171035e+00 -5.6450952394406837e+00
89 1.6639237707899039e+01 4.5511152136638771e+00 1.9027383699194611e+00
91 1.0132959381421131e+01 -7.2935217165236779e+00 -4.7671772001397148e+00
27 7.9122393815888161e+00 -2.0372108500791380e-01 4.6654737994507101e-01
74 6.1760301015501193e+00 3.2140193843398666e+00 -1.2156585225402221e+01
73 -1.1089318700199829e+01 7.6011690500531071e+00 -5.8293600278820534e-01
11 8.1224831959987061e+00 -4.7737489969421834e+00 6.9930489668864606e+00
7 4.0982204210845659e+00 4.7769291030438916e+00 -4.2531619115162087e+00
138 8.0873002539113736e-01 9.2197628515281752e-02 -3.8345984937703013e+00
10 8.7508333015869084e+00 2.6638485519086110e+00 2.5166000404403849e-01
25 1.2721252170093102e+01 2.3476219460168659e+00 1.3867777516865036e+01
153 6.5914717168327295e+00 4.8355344736961270e-01 -1.5408834143725182e+01
129 7.0401970322605720e+00 -7.8388164748687812e+00 -7.4471373748893177e-01
14 -6.0385943068983856e+00 6.5274524989150091e+00 -1.3418034341755432e+00
157 -8.6010768999191960e+00 -3.8481531613601967e+00 -2.7957615619760392e+00
16 -1.1857879794931294e+00 2.0192360570460970e+00 1.4690590777937913e+01
31 1.3021496188032664e+01 -5.8543385245947208e+00 -2.5431803327898681e+00
78 6.8440575025248842e+00 3.7951610291577240e+00 -1.3931789618586636e+01
80 -8.4419318679308049e+00 1.9536048015813453e+01 3.5433954718298803e+00
93 1.1216922067753016e+01 -2.7555668353822771e+00 9.9682163530546823e+00
95 1.1034644039572377e+00 -1.2545989773336488e+00 -6.4993240477002834e+00
1 -4.3697250024584182e+00 7.1640228547416154e+00 -3.3844189556032429e+00
142 7.7737867859676424e-01 -3.5902700383638892e+00 7.4691750987563110e-01
13 -6.5868622652877180e+00 5.1921034879350927e+00 4.5517166143918644e+00
141 5.9955167525759361e+00 -8.4261894231925325e+00 -4.9711813640185607e+00
146 -6.9705222294743061e+00 8.4581404268815579e+00 -7.4492881540990972e+00
161 -1.4920004896852928e+01 9.4606152307094842e+00 -1.7590095725725372e+00
24 -2.4732072548463853e+00 4.3054014404319725e+00 -1.0045509661005259e+01
82 6.5367325981968101e+00 -1.5607726104281654e+00 5.9468800656246019e+00
35 1.9207724282475496e+01 4.2099750886938558e+00 -3.6436502997197939e-01
88 -9.9170204500036654e+00 -1.1327269151489540e+01 3.9982063911027321e-01
99 -8.3598919755630678e+00 1.7745766959749285e+00 -1.9729479386557580e-01
101 4.5602501225476963e+00 7.5067730590133870e+00 2.3444208337170480e-02
98 -4.1137090743051887e+00 7.3201041687604800e+00 7.1216830030200873e+00
40 1.0219917774981845e+01 1.5801415280833814e-01 1.3867941565113584e+01
104 1.8483824394473819e-01 5.1514762863605705e+00 -1.0614651843522765e+01
36 2.2410679825529831e+00 5.2064706949135404e+00 -4.1226868444228124e+00
162 8.5463401261192757e+00 -3.2223517577496392e+00 2.2554421751033207e+00
18 1.3904981898306716e+00 -6.9375871689592241e+00 4.5345985758367604e+00
34 -1.8798484688368958e+01 4.7793275268834403e+00 5.3394479609974308e+00
86 -2.8525589703979821e+00 1.0769929198050503e+01 -7.5185870926045739e+00
28 7.1217074450466642e+00 4.0823795567971555e+00 -4.7260732890440620e+00
39 -8.3221318726116884e+00 6.0816471858686310e+00 5.0938828471393025e+00
90 2.1089521176737662e+00 -5.6465641538161799e+00 -3.0775637769019597e+00
92 -6.0744588543926792e+00 -6.0783222153545307e+00 -8.9717813468033203e+00
102 -3.2932236738166663e+00 1.2535227657305388e+01 -9.9579565525406188e+00
103 -1.0355669818438093e+01 2.8100260476755334e+00 -8.6371492044223741e-01
105 -2.7999190565667278e+00 4.9296167405391005e+00 -3.9613494545413688e+00
107 4.0973574281096390e+00 -3.0840852379916011e+00 4.5008696550648617e+00
43 6.0918917837858872e+00 2.3107945944739789e+00 5.8388101934404153e+00
108 2.8470093991920775e+00 -6.8029564871015333e+00 1.3058085748839247e+01
44 -1.1961382619152381e+01 -2.7996069407806292e+00 3.3681098161245511e+00
106 -1.0206848610185947e+01 4.8282414544796759e-01 -1.6449993058982511e+01
26 -1.9652708804648187e+00 -3.1926328321785800e+00 1.4291966903259870e+00
169 6.0439330095633741e+00 1.2384871687086186e+01 1.2953496970197573e+01
22 6.8277176678951399e+00 -7.0946398573399405e-01 1.0818793416917369e+00
41 9.0276731300386892e+00 -3.3619910053248345e+00 -1.1849352760800451e+00
154 -1.0856478751151870e-01 1.1236863885766667e+01 -4.4021526325873594e+00
46 -8.0225388669007138e+00 4.7690118180697514e+00 2.6378003337523812e+00
174 8.3124506721243652e+00 7.7320387307194789e+00 9.8215832031223265e+00
100 -4.1387665435800187e+00 1.2334085414141707e+00 -1.1471296233621342e+01
97 -1.2741843232972114e+01 -2.6809093561069455e+00 -4.6095063927973392e+00
20 2.2996296832996501e+00 3.1330629755509465e+00 -1.8064571765894388e+00
84 -9.9318326515632815e+00 -1.8774907262870584e+00 -2.8196768927314002e+00
32 -7.1374087987172681e+00 -8.6246791938904082e+00 9.5681322337473595e-01
94 4.4129366393258387e+00 -4.6539698765025443e+00 -1.5041375969844031e+00
48 -2.4095204143417028e+00 2.2152086061716550e-01 -3.1392162133967902e+00
96 8.2204169647986003e+00 -4.6454516688314174e+00 -6.5348493900873743e+00
110 -2.0640437611750078e+00 1.1999845812015086e+00 -7.7040136820721239e-01
112 1.0507469742885615e+01 1.1878419532164076e+01 4.9894991636568502e+00
47 -9.6513108853556862e+00 2.8189378393706976e-01 -1.9695313611755445e+00
109 -4.8964944886852280e+00 1.6180600197130580e+01 -1.6614116338367775e+00
111 3.5564843891394271e+00 -1.2708478794694035e+01 -1.1817281893575798e+01
158 1.5369709523510955e+00 1.1565364009070661e+01 -4.2239165161831433e+00
173 1.2025792559697734e-01 1.5790950628168643e+00 3.8677352287078874e+00
177 1.7663996925145607e+01 5.5744116477270547e+00 -1.4685217591125395e+00
116 1.8293800273277161e+00 -1.2435923673416529e+01 -5.2856910540535447e+00
65 -2.1382389318750676e+00 4.4067056847282773e+00 -1.4594344823231335e+01
3 -6.7014111569096393e+00 -2.7006966961145160e+00 5.7626328384138512e+00
52 7.4199255950585012e+00 -4.2643420367384826e+00 -4.2097882238516044e+00
67 -5.0705424928103211e+00 9.1391511421517215e+00 4.5901352956898505e+00
115 -1.0294860774699998e+01 1.0321768160281966e+01 -5.6618241169293935e+00
56 -5.2671033294128256e+00 6.8872623981330587e+00 -1.3071273094633418e-01
120 1.1661061949144543e+01 -3.8812563229157031e+00 -9.3693880716465063e+00
51 -7.3260417520651320e+00 -3.0172106936397940e+00 -2.4128010579171395e+00
117 -6.0485405609249554e+00 -7.4561778531308160e+00 1.6257208119379087e+00
114 -7.0981834119484599e-01 2.3748701041286381e+01 -1.2522506481527817e+01
75 -1.4973608865534779e+01 -3.8189970421930117e+00 -2.0574773458496010e+00
59 -6.5184901685180270e+00 -3.7614221470704026e+00 2.9041235578400787e-01
118 -1.0463566592700721e+01 -1.1677983529355634e+01 -3.6174721946280699e+00
121 1.9899457176788062e+00 -1.3699003997973751e+00 -1.2581931622476169e+01
123 -3.7889501405870565e+00 8.9034558231549965e-01 1.2502479478129114e+01
55 9.7193199519530538e+00 -1.1311807115012535e+00 9.8635776280665848e+00
119 -1.5965613224430186e+01 -3.7873059411858248e+00 6.8535275622237988e+00
60 -4.8659429412750432e+00 1.2215415202412927e+01 -8.1164352296864770e+00
124 7.6117879208655592e-01 -4.4915470751044628e+00 -6.6620561666678335e-01
122 5.1171126826724906e+00 2.4515979590866803e+00 -7.3132567212293704e+00
71 2.4536380381765731e+01 8.7305368909225773e+00 4.7889795756509752e+00
182 -6.1241787828709242e+00 1.6967063619552891e+00 2.8424764606307935e+00
137 4.3410540036987983e+00 -2.7381031251021343e-01 -1.2989987563108581e+01
54 -9.6656414331703211e-01 -3.5336270970869825e+00 5.3310102017223784e+00
77 2.7097380083588858e+00 7.2881132766847712e-01 -3.6752859869185812e+00
79 -2.3733243034885492e+00 2.2297836596043177e+00 2.8459847465292611e+00