LAMMPS (8 Feb 2019)
Processor partition = 5
echo both

include		in.partitions
variable p_id world   0 1 2 3 4 5
include		in.temp
variable	temperature equal 2000.
variable	tempDamp equal 0.1 # approx 0.1 ps
include		in.pressure
variable	pressure equal 300000.
variable	pressureDamp equal 1.0
include 	in.seed
variable	seed world 74581 93734 128321 21934 495716 871038
units		metal
include		in.box
read_data	data.equil.${p_id}
read_data	data.equil.5
  orthogonal box = (0.458751 0.458751 0.458751) to (15.7252 15.7252 15.7252)
  1 by 2 by 3 MPI processor grid
  reading atoms ...
  256 atoms
  reading velocities ...
  256 velocities

variable 	mass equal 26.981539
mass            1 ${mass}
mass            1 26.981539
include 	in.setup
variable	out_freq equal 500
variable	out_freq2 equal 500

neigh_modify    delay 10 every 1
include		in.al
### Argon Potential Parameters ###
pair_style 	eam/alloy
pair_coeff 	* * Al99.eam.alloy Al

timestep	0.002 # According to Frenkel and Smit is 0.001

thermo          ${out_freq}
thermo          500
thermo_style 	custom step temp pe press lx


restart 	${out_freq} Restart.lmp.${p_id} Restart2.lmp.${p_id}
restart 	500 Restart.lmp.${p_id} Restart2.lmp.${p_id}
restart 	500 Restart.lmp.5 Restart2.lmp.${p_id}
restart 	500 Restart.lmp.5 Restart2.lmp.5



# NPT

include		in.dump
dump            myDump all atom ${out_freq2} dump.al.${p_id}
dump            myDump all atom 500 dump.al.${p_id}
dump            myDump all atom 500 dump.al.5
dump            myDcdDump all dcd ${out_freq2} out.${p_id}.dcd
dump            myDcdDump all dcd 500 out.${p_id}.dcd
dump            myDcdDump all dcd 500 out.5.dcd
dump_modify	myDump append yes
dump_modify     myDcdDump append yes


timer 		timeout 23:50:00 every 1000
New timer settings: style=normal  mode=nosync  timeout=23:50:00

fix             1 all plumed plumedfile plumed.start.dat outfile plumed.out.${p_id}
fix             1 all plumed plumedfile plumed.start.dat outfile plumed.out.5
fix             2 all nph iso ${pressure} ${pressure} ${pressureDamp}
fix             2 all nph iso 300000 ${pressure} ${pressureDamp}
fix             2 all nph iso 300000 300000 ${pressureDamp}
fix             2 all nph iso 300000 300000 1
fix             3 all temp/csvr ${temperature} ${temperature} ${tempDamp} ${seed}
fix             3 all temp/csvr 2000 ${temperature} ${tempDamp} ${seed}
fix             3 all temp/csvr 2000 2000 ${tempDamp} ${seed}
fix             3 all temp/csvr 2000 2000 0.1 ${seed}
fix             3 all temp/csvr 2000 2000 0.1 871038
fix		4 all momentum 10000 linear 1 1 1 angular

run             15000000 upto # 30 ns
Neighbor list info ...
  update every 1 steps, delay 10 steps, check yes
  max neighbors/atom: 2000, page size: 100000
  master list distance cutoff = 8.28721
  ghost atom cutoff = 8.28721
  binsize = 4.1436, bins = 4 4 4
  1 neighbor lists, perpetual/occasional/extra = 1 0 0
  (1) pair eam/alloy, perpetual
      attributes: half, newton on
      pair build: half/bin/atomonly/newton
      stencil: half/bin/3d/newton
      bin: standard
Per MPI rank memory allocation (min/avg/max) = 4.005 | 4.07 | 4.382 Mbytes
Step Temp PotEng Press Lx 
       0    1810.3241   -759.36885    277067.35    15.266498 
     500    2066.6287    -745.5228    306488.07    15.199121 
    1000    1880.0602   -744.36387    300369.07    15.202395 
    1500    1919.1027    -746.4292    302434.27    15.196309 
    2000    1791.1213   -738.37637    299155.32    15.237021 
    2500     1843.385   -738.37562    291077.53    15.252777 
    3000    1950.4647   -730.85071    299328.82    15.237946 
    3500    2070.5932   -732.64451    299311.58    15.264325 
    4000    2112.7468   -738.13581    293228.36    15.309182 
    4500    2017.0864   -714.72962    311982.75    15.134813 
    5000    1994.9743   -723.94149    303722.03    15.221134 
    5500    2135.3684   -732.33164    297048.33    15.262627 
    6000    1949.0477   -726.91285    295852.72    15.215185 
    6500    1915.0469   -722.61768    303275.83    15.191908 
    7000    1985.4565   -723.14841    294641.22    15.221668 
    7500    1885.0284    -719.8479    299741.53    15.196202 
    8000    1945.9069   -767.36594    291887.42    15.428671 
    8500    1995.5796    -774.5734    290143.46    15.403426 
    9000    1903.2322   -769.54553    297658.37     15.38283 
    9500     1952.772   -768.29954    302445.77    15.371274 
   10000     2127.978   -758.33056    311825.66     15.37473 
   10500    2046.3348   -771.41135    303945.19    15.355953 
   11000    2071.4098   -767.83157    306685.57    15.369231 
   11500    1776.1217   -769.22689     305193.1    15.330345 
   12000    1980.7403   -770.54026     299478.8    15.446028 
   12500    1901.6804   -773.67042    290720.62     15.48276 
   13000    2056.6789   -772.80672    296249.14    15.450092 
   13500    1730.9822   -765.77638    296317.67    15.482292 
   14000    1977.2024    -771.4862       285226    15.527508 
   14500    1930.1711   -765.23677    299555.23    15.472372 
   15000    1900.1804   -751.87556    304347.98    15.451403 
   15500    2027.4245   -732.55358    304521.73    15.329753 
   16000    2191.5722   -684.19431    312676.46     14.98193 
   16500    1989.4449   -690.28912    296740.67    15.012561 
   17000    2055.3122   -690.85716    299487.67    15.081132 
   17500    2024.1265   -688.07809    302636.43    15.001071 
   18000    2017.0411   -684.15274    312465.37    14.962018 
   18500    2073.0102   -697.32686    289017.63    14.993732 
   19000     1943.222   -698.23746    291486.36    15.005051 
   19500    2170.5992   -690.80666    298103.48    15.030037 
   20000    2050.0579   -694.47235    289657.44    15.005875 
   20500    2012.0307   -691.86328    291953.81    15.050737 
   21000    1890.6121   -679.80715    316016.88    14.988689 
   21500    1765.1227   -736.78143    295949.76    15.401993 
   22000    1937.7356   -695.22667    297439.18    15.131525 
   22500    1983.5867   -685.87012    305859.08    15.024969 
   23000    1878.2108   -686.29866    298518.81    15.104621 
   23500    2073.6969   -684.76096    299738.68    15.135779 
   24000    2046.4738   -684.13183    291629.44    15.136674 
   24500    2078.4231   -689.98546    284278.76    15.112443 
   25000    1863.7687   -659.73727    300202.68    14.947333 
   25500    1911.0293   -663.99752    300632.23    14.968521 
   26000    2020.8059   -659.77526    301126.59     14.98123 
   26500     1960.341   -656.77868    306160.87     14.96145 
   27000    2056.7936   -648.13281    305995.53    14.996468 
   27500    1957.3531   -654.42327    302614.01     14.97389 
   28000    2071.5419    -657.8508    301892.43      14.9987 
   28500     1942.669   -655.94568    301924.83    14.979146 
   29000    1819.2432   -656.57335    293912.28     15.02324 
   29500    1869.9407   -657.66134    293293.34    15.040437 
   30000    1865.9782   -650.45169    303693.33     14.94566 
   30500    2016.4775   -658.54448    298750.46    14.977342 
   31000    1839.2886   -652.71215    310813.94    14.921177 
   31500    1938.3129   -656.79459    299896.41     14.95464 
   32000    1908.7801   -658.17423    291345.32    14.971929 
   32500    2025.7573   -651.60286    323502.67    14.878398 
   33000    1904.3815   -658.19527    288859.83    15.017203 
   33500    2009.9673   -650.64095    321324.52    14.894673 
   34000     1907.851   -659.68533    295332.32    15.022607 
   34500    1853.9719   -666.20245    288506.24    15.015166 
   35000    2163.8093   -649.37972    306895.81    14.933937 
   35500    1927.5643   -644.25836    320130.29    14.875643 
   36000    1863.6468   -648.44855     299578.3    14.939453 
   36500    1993.0449   -667.46302    287765.67    14.979018 
   37000    2098.1542   -645.38034    327225.14    14.856513 
   37500    2034.2566    -651.2973    300338.22    14.958403 
   38000    1913.4868   -647.29142    305411.56    14.893656 
   38500    2002.1053   -655.01487    300999.25    14.899061 
   39000    2170.6105   -653.94898    315707.74     14.89575 
   39500    2028.9047   -649.72319    306377.83    14.923028 
   40000    2041.5702    -665.7066    295367.64    14.946111 
   40500    2114.3577   -695.73676     304393.6    15.077137 
   41000    1985.5956   -730.38471    304237.88    15.426114 
   41500    2026.3601   -746.97818    303538.31    15.485917 
   42000    2040.7364   -755.73372    308061.65     15.53075 
   42500    2003.9809   -756.88139    304512.05    15.510742 
   43000    1879.3532   -705.47345    301717.85    15.193534 
   43500    2116.0019    -713.2307    301075.69    15.205927 
   44000    1970.3675   -673.30384    306361.82    14.911792 
   44500    2039.3913    -682.5817    297915.01    15.041623 
   45000    2033.2338   -729.02635    311675.74    15.410793 
   45500    2001.5119   -744.44934    281453.18    15.618968 
   46000    2136.1192   -748.21643    286796.12    15.579595 
   46500    1974.7118   -740.02903    300265.57    15.492274 
   47000    2009.6929   -734.42865    304658.81    15.525931 
   47500    1958.8898   -739.01075    304039.53    15.549914 
   48000    1997.1007   -727.77063    313437.15    15.431949 
   48500     2115.263   -738.21008    302205.42    15.555126 
   49000     2088.238   -748.72937    273662.27    15.634674 
   49500    1951.7307   -743.81329    305393.86    15.565027 
   50000    2173.7535   -738.19185    303886.01    15.527703 
   50500    2158.0697   -734.46598    304815.13    15.438104 
   51000    1930.3666    -719.9399    297413.11    15.360034 
   51500    2096.7074    -715.9556    300326.22    15.212691 
   52000    2129.2999   -701.18117    295634.86    15.180822 
   52500    1856.0742   -717.47983    298768.74    15.272765 
   53000    2031.1268   -677.73496    292644.95    14.974966 
   53500    1953.4873   -707.90326    296960.56    15.241595 
   54000    1860.7645   -718.86873    296680.28    15.325334 
   54500    2174.6308   -723.05938    299057.89    15.395613 
   55000    2055.6062   -656.92721    316128.29    14.841091 
   55500    2045.4099   -731.20181    304141.07    15.388703 
   56000    1976.8413   -722.91061    299865.33    15.391851 
   56500    1998.4796   -763.11522    294392.39    15.601843 
   57000    2287.7005   -767.91153    301994.17     15.58322 
   57500    2087.1883   -737.14729    301666.86    15.336727 
   58000    1924.6869   -715.81729    294580.79    15.242704 
   58500    2024.2087   -677.68321    288831.36    14.880818 
   59000    1982.7624   -712.54691    292303.47    14.964561 
   59500    2155.5326   -671.45728    297569.83    14.871261 
   60000    2059.8204   -690.81325    290849.02    14.885827 
   60500    2141.9491    -688.0548    310563.16    14.811581 
   61000    2166.2407   -691.50661    298056.82    14.856848 
   61500    2084.0931   -727.92078    286009.77    15.028845 
   62000    1831.0724   -673.10644    298651.54    14.859901 
   62500    2107.3093   -658.27733    315332.11    14.794331 
   63000    1975.4342   -680.25514    296517.19    14.933736 
   63500    2034.6029   -663.35673    312615.04     14.81029 
   64000    2030.8721   -695.42854    297604.28    15.050875 
   64500     1950.879   -711.40626    300588.35    15.266996 
   65000    2077.8188   -707.45413    300559.08    15.270223 
   65500    2049.2507   -737.82458    298727.79    15.460508 
   66000    2151.7971   -710.23835     303162.1    15.244695 
   66500    2160.9504   -668.20699    302975.84    14.956732 
   67000    1900.6422   -742.76727    301830.61    15.449074 
   67500    2094.1185   -704.35225    301961.89    15.137554 
   68000    1835.6948   -660.58221    305689.27    14.792235 
   68500    1947.5163   -676.32344    292379.51    14.891503 
   69000    1953.7269    -662.9789    299951.47    14.819382 
   69500    2096.2836   -669.57651    294861.11     14.81243 
   70000    1948.8008   -664.19621    300404.15    14.803838 
   70500    2101.4328   -685.69458    297597.86    14.959647 
   71000    1955.5203   -669.72691    295666.55    14.919052 
   71500    2211.5897   -664.56493    300200.08    14.802035 
   72000    2058.5171   -665.74856    288668.36    14.903181 
   72500    2077.2114   -660.95876    297568.05    14.863148 
   73000    1904.1841    -653.7962    297547.05    14.896768 
   73500     2081.216   -700.20145    308507.91    15.143908 
   74000     2137.113   -710.66193    309077.76    15.260485 
   74500    2082.2666   -708.67429     303090.6     15.20328 
   75000    2054.0247   -702.48562    310187.24      15.1376 
   75500    1954.3484   -722.23242       292603    15.247888 
   76000    1900.9307   -713.53468    299086.72    15.253338 
   76500    1960.2115   -719.14845    296434.74    15.316327 
   77000    2155.2948   -749.04766    290184.69    15.582682 
   77500    1776.6636   -751.95072    290704.65    15.609578 
   78000    1968.6987   -729.20239    301629.44    15.473847 
   78500    2158.9297    -705.6046    305701.72     15.21954 
   79000    1855.4927   -746.08361    302841.37    15.518153 
   79500    2057.1691   -703.70515    310924.46    15.113445 
   80000     1919.419   -716.33121    293210.23    15.270123 
   80500    2046.9196    -721.7308     298397.4    15.290367 
   81000    2015.1547   -711.67807    300774.67    15.309258 
   81500    1989.6028   -725.41795    292116.48    15.371668 
   82000     1989.434   -708.66227    301730.31     15.25641 
   82500    2049.0363   -740.60607    303467.76    15.451003 
   83000    1917.8303   -720.03671    294832.95    15.343113 
   83500    2033.3434   -701.84872    305614.42    15.242401 
   84000    2159.7355   -702.87158     303758.3    15.282636 
   84500    1942.2426   -743.03561    299476.62    15.503078 
   85000    1862.3936   -728.25876     298147.7    15.437598 
   85500    1965.5188   -753.87666    287736.12    15.647657 
   86000    1877.6265   -709.57987    297325.52    15.218674 
   86500    2055.6969   -711.16412    308203.36    15.120158 
   87000     1914.952   -715.50242    298535.93    15.178068 
   87500    1835.6972   -709.76586    300157.26    15.229206 
   88000    1927.8785   -725.83996    296122.42    15.282018 
   88500    2075.5249    -649.1536    298101.84     14.81361 
   89000    1955.3967   -646.78146    307415.31     14.84416 
   89500    1908.7304   -660.99013    285509.61    14.913799 
   90000    1925.0183   -647.52667    309299.16    14.791893 
   90500      1843.38   -657.95451    285094.26    14.858796 
   91000    1936.5528   -662.94021    285072.52    14.881497 
   91500    1982.6714   -647.05431    310272.39    14.772314 
   92000    2035.8122   -641.64356    309991.81    14.789725 
   92500    2130.9425   -656.11626    291651.59     14.94039 
   93000    2099.9829   -662.88846    287885.73    14.891203 
   93500    1964.1432   -646.49787    293611.97    14.883131 
   94000    2055.7269    -653.6055     296217.8    14.840311 
   94500    2019.5731   -636.96828    318166.18    14.776623 
   95000    2152.2384   -656.78856    293750.59    14.857608 
   95500    1989.9719   -656.29592    296148.72    14.874358 
   96000    1953.9136   -653.05122    290752.96    14.834538 
   96500    1957.7481   -646.28416    292415.63     14.79567 
   97000    1848.9771   -643.79301     313995.2    14.772543 
   97500    2043.0916   -653.77442    294833.82    14.827268 
   98000      1875.82   -650.19072    286069.44    14.860899 
   98500    1901.9175    -641.3525    307222.37     14.79502 
   99000    2112.1964   -646.12341    301132.62    14.791738 
   99500    1759.2731    -654.3892    285708.45    14.892763 
  100000    2109.8731   -643.56847    313214.13    14.778588 
  100500    1981.6534   -649.57861    306162.96    14.837072 
  101000    1970.6859    -645.0563    301294.58    14.795228 
  101500    2006.9198   -653.09394    290710.91    14.791241 
  102000    1928.9958   -640.89616    292775.76    14.789508 
  102500    2067.3113   -647.52466    282315.56    14.807386 
  103000    2141.5059   -653.97445    297291.65    14.769613 
  103500    1951.0459   -635.75715    312332.28    14.735382 
  104000    1869.3383   -652.51864    286422.78    14.788195 
  104500    1916.2647   -640.74664    310186.76    14.749228 
  105000     1900.404   -645.94813    313311.73    14.730598 
  105500    2066.9527   -653.32608    287173.81    14.801236 
  106000    2145.1618   -637.36191    326137.81    14.716117 
  106500     2124.498   -645.89654    302706.07    14.746541 
  107000    1928.5019   -641.35195    288844.46    14.736127 
  107500    2150.7152   -638.86096    285526.39    14.774799 
  108000    1906.3689   -633.75172    296893.52    14.782284 
  108500    1828.7498   -626.99796    316653.45    14.727763 
  109000    2124.0243   -631.79764    307714.92    14.729982 
  109500    1847.7141   -636.56709    296981.17    14.762507 
  110000    2102.0793   -637.02884    306700.49    14.762384 
  110500    1994.4366   -629.86302    320357.13    14.726438 
  111000    1931.6971   -643.51408    290781.52    14.719678 
  111500     1924.931   -651.48774    294494.81    14.789796 
  112000    1984.2038   -653.43595    287107.99    14.811147 
  112500      1830.01   -645.95535    304154.15    14.760509 
  113000    1958.1363   -645.93601    293099.59    14.765743 
  113500    2008.6575   -650.49789    292092.86    14.806492 
  114000     1914.993   -645.70498    298775.14    14.788686 
  114500    1818.0087   -637.27523     295057.4    14.776836 
  115000    2152.4808   -643.49107    290424.52    14.791619 
  115500    2094.3403   -642.89828    313551.08    14.733237 
  116000    2018.2532   -647.34108    302111.91    14.768897 
  116500    2052.9592   -644.57822     315348.5     14.74655 
  117000    2009.9938   -655.72936    282740.98    14.825178 
  117500    1994.0001   -630.00731    309570.83    14.752377 
  118000    1961.2321   -635.29755    303187.59    14.756379 
  118500    2149.2849   -630.80096    323254.36    14.739417 
  119000    1938.4786   -704.31141    284000.62    15.163449 
  119500     1953.007    -701.2566    301115.18     15.17485 
  120000    1945.9509   -718.03525     296924.3    15.344785 
  120500    1955.7019   -691.33975    299124.33    15.297862 
  121000    1967.8275   -690.16182     306801.7    15.231604 
  121500    1969.6737   -690.15832    302208.76    15.237969 
  122000    2011.1371   -687.36666    311269.19    15.205116 
  122500    2096.6999   -678.67396    317455.85    15.128681 
  123000    1967.7998   -688.53215    300636.68     15.30819 
  123500    2066.5047   -691.51518    301889.92    15.276286 
  124000     2006.546   -686.47097    310429.23    15.251842 
  124500    2071.3529   -673.50486    319596.56    15.168141 
  125000    1969.8981    -687.3257    297932.79     15.29985 
  125500    1963.5813   -694.97648    302403.34    15.277511 
  126000    2024.6771   -696.68717    304470.29    15.224046 
  126500    1834.1414    -693.4583    288323.71      15.3272 
  127000    2090.3921   -687.98183    312193.64    15.224878 
  127500    2195.8754   -688.80053    295458.83    15.265203 
  128000    1957.6058   -681.80315    309464.05    15.288949 
  128500    1963.7063   -679.54876    306035.93    15.265605 
  129000    1908.7118   -702.35734    285940.85    15.291633 
  129500    1923.5717   -699.52232    293609.95    15.281507 
  130000    2003.1701   -692.81209    310421.04    15.183605 
  130500    1978.3517   -675.22542    313888.92    15.242188 
  131000    2031.6205   -671.27918    316912.65    15.198826 
  131500    2136.6927   -686.29933    307007.95     15.28763 
  132000    2043.0133   -678.23804    319237.35    15.243138 
  132500    2106.5403   -692.87916    301587.07    15.297339 
  133000    1983.5219    -691.5687     300029.5    15.240176 
  133500    1692.2908   -697.44512     283271.5    15.327052 
  134000     2050.285   -687.20469    290401.12    15.283193 
  134500    1885.1916   -690.04262    300510.62    15.217807 
  135000    2051.6594   -689.88851    299542.49     15.25819 
  135500    1952.1706   -699.65013    295178.63    15.248379 
  136000    2086.5972   -705.47985    303193.56    15.264603 
  136500    2214.1069    -709.7105    289661.72    15.202548 
  137000    1938.8006   -705.13276    288285.28    15.212972 
  137500    2101.2655    -708.0706    297754.63    15.208607 
  138000    1894.7355   -695.09479    304012.74     15.15873 
  138500    1856.1684   -708.74344    301215.17    15.220935 
  139000    2191.9562    -717.0289       298072    15.203239 
  139500    2304.8386   -696.66693       302252    15.161792 
  140000    1930.7865   -711.21842    299440.71    15.176385 
  140500    2022.0712   -696.75055    307207.08    15.066169 
  141000     1895.685   -696.67122    308012.79    15.115266 
  141500    1990.1637   -698.44811    293326.89    15.047484 
  142000    1966.3087   -712.26193    297410.57    15.114067 
  142500    1966.3835   -685.28038    302804.99    15.013687 
  143000    1978.0711   -706.90162    300709.23    15.179745 
  143500    1906.4412   -713.03421    293200.58    15.149078 
  144000    1993.4059   -699.20349    292480.31    15.013228 
  144500    1880.9216    -660.2104    303168.16    14.766045 
  145000    1759.1697   -652.33511    288345.91    14.762413 
  145500    1908.2266    -668.1731    303379.27    14.911443 
  146000    1827.2512   -717.15283    284916.97    15.246791 
  146500    1961.2335   -697.90504    309213.24     15.10971 
  147000    2003.6168   -719.53159    286706.04    15.229835 
  147500     1949.588   -705.00629    304356.56    15.125209 
  148000    2051.7761   -688.12934    302646.43    14.946966 
  148500    2116.4197   -655.46752    298201.01    14.902383 
  149000    2101.3227   -703.02329    292712.66     15.26421 
  149500    2127.5249   -698.16357    300299.68    15.162962 
  150000    2086.5031    -685.3985    315740.24    15.002794 
  150500    2014.6143   -690.70289     299020.5    15.054451 
  151000     2020.375    -710.9777    303488.08    15.059072 
  151500    2203.6957   -751.54223    308716.29     15.13451 
  152000    2130.0835   -748.26307    303436.99    15.161284 
  152500    1972.6103   -744.08066    306155.51    15.097194 
  153000    1904.7471   -755.59806    296392.26    15.167642 
  153500    1942.2283   -757.86859    291227.47    15.205291 
  154000    1953.6148   -744.11672    311271.02    15.085372 
  154500    2104.7384   -750.05183    309305.76    15.109091 
  155000    2071.8719   -760.44948    297113.59    15.161204 
  155500    1899.6021   -763.28635    294468.55    15.182144 
  156000     1992.124   -744.92531     300422.7     15.15752 
  156500    1925.8991   -748.25687    298791.82    15.198302 
  157000    2002.1792   -725.07546    294089.99    15.195875 
  157500    2064.9668   -698.45733     305426.3    15.075236 
  158000    2008.3457    -701.4415    304624.97    15.079686 
  158500    1969.5222   -744.78934    297639.82     15.50652 
  159000    2025.0826   -762.04225     310731.1    15.614065 
  159500    2056.4391   -771.45283    305626.35     15.67378 
  160000    2014.9893   -770.67738    287910.93    15.693943 
  160500    2197.9776   -764.23383       305366    15.643642 
  161000    2071.6991   -761.57212    299517.02    15.572691 
  161500     1901.851   -769.93521     296525.1    15.673811 
  162000    2034.9833   -756.31583    297009.66    15.540038 
  162500    1979.9122   -791.87536    285763.19    15.738189 
  163000    1851.6172   -752.14588    298774.25    15.658401 
  163500    2067.4736   -750.26794    307266.07    15.612021 
  164000    1952.8803   -742.27836    310572.16    15.525303 
  164500    2113.0251   -746.95193    313024.66    15.650257 
  165000    2081.7885   -755.59716    301187.25    15.751235 
  165500    1921.8685   -748.84728    301393.67    15.669726 
  166000    1934.4945   -754.43852    299300.36    15.787955 
  166500    2252.6767   -752.76424    316978.53     15.75973 
  167000    1972.8755   -758.16992    311816.36    15.772699 
  167500    2139.5118   -740.90645    311508.86    15.695551 
  168000    2097.5664   -749.50351    303876.53    15.736931 
  168500    1955.9657   -760.77782    306092.64    15.778529 
  169000    2100.3038   -752.13707    312647.25    15.775647 
  169500    1925.2515   -761.31827    288334.26    15.790479 
  170000    1946.5968   -748.49152    309250.01     15.74452 
  170500    2071.5011   -759.74512    290195.34    15.829503 
  171000    1888.1363   -761.73554    304678.97      15.7916 
  171500    2176.1709   -764.41445    303785.58    15.818627 
  172000    2102.5386   -759.33799    300858.77    15.748899 
  172500    2058.0118   -753.17631    301477.34    15.797603 
  173000    2107.6064   -755.71156    305627.95    15.717636 
  173500    1977.8808   -757.70592    293225.45    15.782842 
  174000    2072.6048   -750.39475    304511.71    15.732633 
  174500    2065.7148   -755.75182     299113.9    15.737466 
  175000    1894.5876    -758.2859     285753.1    15.788957 
  175500    2026.9976   -687.52964    311196.51    15.119857 
  176000    1878.4511   -764.36128    287479.13    15.684126 
  176500    1977.4924   -728.36924    299357.92     15.54661 
  177000     1973.748   -758.78079     287011.8    15.745544 
  177500    1965.2071   -737.58045    298190.02    15.618326 
  178000    1994.1706   -748.37232     303578.3    15.637146 
  178500    1949.9608   -763.53052    303768.07    15.634349 
  179000    2134.8265   -754.46771    303740.34    15.632256 
  179500    2024.5566   -746.73637    294710.87     15.68139 
  180000    2080.8045   -750.31368    301384.28    15.667343 
  180500    2084.5773   -733.50342    301753.72    15.610378 
  181000    2109.1119   -751.69109    300718.72     15.59853 
  181500    1976.0987   -747.37079    296431.84    15.663152 
  182000    2039.4961   -734.37494    300586.93    15.569129 
  182500    1955.1501   -757.63824    294359.27    15.666492 
  183000    1803.7974   -745.06957    306820.91    15.510202 
  183500    1849.5075   -708.98312    291682.44     15.37704 
  184000    1993.1956   -690.08996    298765.87    15.256139 
  184500    1958.9571   -690.66814    295657.93     15.15054 
  185000    1977.7445   -687.33523    302373.99    15.132778 
  185500    2014.3229   -688.19628    301814.98    15.056172 
  186000    1932.4051   -679.29959    306433.77    15.133515 
  186500    1965.6339   -680.53355    311023.84       15.136 
  187000    2121.6001   -691.53435    304769.91    15.192792 
  187500    1985.0346   -695.13994     300918.2     15.34084 
  188000    2025.7975   -691.26472    307363.56    15.185356 
  188500    2131.3702   -716.15993    298902.93    15.341571 
  189000    1929.9903   -711.98208    297805.05    15.388312 
  189500    1993.7313   -691.78787    303348.06     15.23279 
  190000     2034.772   -750.16988    310061.13     15.58144 
  190500    2050.7676   -754.85757    305134.98    15.542815 
  191000    2056.6245   -742.70932    304965.57    15.458291 
  191500    1944.3746   -735.94814    302940.83    15.509146 
  192000     1938.968   -760.46289    302922.88    15.610154 
  192500    2049.3565   -766.11649    284152.47     15.66043 
  193000    1958.6728   -758.71142    304234.68    15.551814 
  193500    2071.4297   -649.35355    293127.72     14.82582 
  194000    2035.0752   -645.03586    303022.94    14.757023 
  194500    1977.0564   -646.35233    302101.51    14.769296 
  195000     2138.853   -691.04826    304067.27    14.993803 
  195500    2049.5738   -674.83929    296440.08    14.894487 
  196000     2267.773   -713.59477     302253.2    15.186691 
  196500     2053.433   -689.78899    302345.77    15.120773 
  197000    2071.8948   -698.95763    299655.17    15.090687 
  197500    2039.5951   -686.70151    305878.61    15.057798 
  198000     1825.411   -708.76381     301821.1    15.099986 
  198500     1845.526   -739.87098    300901.46    15.181762 
  199000    2192.3736   -756.19015    293060.36    15.346644 
  199500    1975.6562   -724.11384    299943.64    15.221491 
  200000     2017.887    -760.8392    295231.91    15.409671 
  200500    2108.7737   -795.02976    296527.46    15.730871 
  201000    2169.3777   -788.40019    304552.22    15.698294 
  201500     2075.346   -696.00772    304497.67    15.032792 
  202000    1963.0988   -760.20543    304324.57    15.490549 
  202500    2121.9114   -784.84588    303006.21    15.677254 
  203000    2045.9201    -787.2658    307893.41    15.663503 
  203500    1997.1343   -714.11431    306017.79    14.997408 
  204000    1909.3035   -734.47337    303435.78     15.09351 
  204500    1990.2049    -751.4292    312681.46    15.087112 
  205000    1925.7319   -744.86633    297301.63    15.264375 
  205500    1929.5331   -720.36328    306071.85     15.09451 
  206000    1983.5719   -703.49548    302720.55    15.060853 
  206500    2150.0563   -715.83165    300657.24    15.154756 
  207000    1897.3387   -724.34209    297956.98    15.121062 
  207500    1905.0513   -758.64098    297465.62    15.305364 
  208000    1949.8508   -761.57724    293458.04    15.272389 
  208500    2019.7347   -755.46443    305343.64    15.150832 
  209000    2036.9075   -754.55713    299441.56    15.248919 
  209500    1906.2287   -766.33461    291093.75    15.337841 
  210000    1988.3115   -736.48476    298765.55    15.273481 
  210500     2031.099   -747.21503    297131.01    15.247645 
  211000    1985.5372   -709.48725    300944.39    15.019124 
  211500    2021.5619   -779.20451    299039.02    15.670657 
  212000    1806.5872   -783.42381    308425.88    15.669085 
  212500    2130.4116    -781.1819    314564.42    15.649556 
  213000    2053.2692     -694.037    303245.42    14.926213 
  213500    1987.8634   -648.03708    300558.59    14.679585 
  214000    1928.1739   -650.34374    302001.98    14.738985 
  214500    2053.1545   -641.22026    310233.47    14.713776 
  215000     2085.767   -738.45996    300462.27    15.315387 
  215500    1963.1565   -770.26991    295125.09    15.618837 
  216000     2012.575   -783.98634    310836.45    15.681277 
  216500    2052.9238   -747.63324    297989.44    15.326651 
  217000    1957.1524   -736.71147    301454.59    15.175661 
  217500     2076.813    -703.9873    306163.13    14.984953 
  218000    2201.6128   -727.98819    304397.37     15.11053 
  218500    1846.0386   -710.16666    300718.93    15.119916 
  219000    1944.5236   -707.45569    294281.67    15.214973 
  219500     2031.769   -673.73965     297634.8     14.94182 
  220000    2023.4331   -652.09398    292955.17     14.90132 
  220500    1993.3417   -710.44455    292976.51    15.197752 
  221000    1868.8009    -682.6047    293786.57    15.146175 
  221500    1995.9694   -707.94406    298965.12    15.225529 
  222000    1962.0299   -693.11728    299054.72    15.148962 
  222500    2036.5293   -696.25122    279195.73    15.166456 
  223000    2041.5004   -696.77993    292083.81    15.148945 
  223500    1994.7308   -697.30644     293068.7    15.322336 
  224000    2028.2487    -704.0764    298297.15    15.333988 
  224500    1958.0557    -702.2187    295701.59    15.315727 
  225000    2046.3797   -665.79569    299932.06    14.897105 
  225500    1881.4929   -679.81554    308243.65    15.088912 
  226000    1902.0368   -700.99478    299829.59    15.157487 
  226500    1934.6889   -764.71549    293421.06    15.705959 
  227000    2089.6635   -771.96533    296533.13    15.677817 
  227500    2063.9119    -705.7465    307657.06    15.004748 
  228000    1990.8479   -781.76688    284690.34    15.696232 
  228500    1878.6471   -795.06691    279909.21    15.759303 
  229000    2021.4723   -793.10008    273925.61    15.748298 
  229500    2033.3548   -782.55515    301217.48    15.684482 
  230000    2114.2915   -749.59355     301848.9    15.448133 
  230500    1900.9557   -754.19983    297968.88    15.625686 
  231000    1699.3237   -741.26038    303654.56    15.533204 
  231500    1907.1601   -731.33572    308554.64    15.506674 
  232000    1971.4687   -730.25826    302899.36     15.45541 
  232500    2069.0513   -745.02442       298161    15.651642 
  233000    1848.1089   -724.96733     301612.8    15.512283 
  233500    2239.3066    -713.8827     304374.5    15.369987 
  234000    2038.5068   -704.89375    300351.13    15.342016 
  234500    2174.4148   -760.47876    297269.34    15.692358 
  235000    1919.1401    -748.3183    301786.03    15.667952 
  235500     2207.083   -710.69469    303982.12    15.384706 
  236000    2145.0472   -715.63492     301832.4    15.348965 
  236500    2071.2272   -750.42279    299178.93    15.670358 
  237000    2147.7674   -762.64003    289017.72    15.759579 
  237500    2043.7264    -685.1954    300444.08    15.246305 
  238000    2065.9612   -730.61277    297008.89    15.616089 
  238500     1814.398   -699.02364    303196.44    15.326766 
  239000    1828.7898    -732.4909     298555.8      15.5814 
  239500    1975.5039   -752.57467    300434.55    15.671754 
  240000    1955.7314   -743.93702    301758.31    15.606264 
  240500    2044.8503   -744.04767    303231.21    15.579221 
  241000    1901.7307   -721.08221    304082.02    15.406628 
  241500    2139.6731   -731.05376    301557.98    15.519549 
  242000    2022.1883   -694.14012    299054.47    15.372356 
  242500    1920.3243   -722.23831    297721.94     15.38643 
  243000    1841.3349   -697.61458    296428.19    15.224221 
  243500    1979.2206   -699.86573    301551.84    15.219628 
  244000    1979.7459   -704.57177    298231.82    15.196483 
  244500    2010.7623   -689.55502    301590.44    15.064689 
  245000    2031.6151   -672.77686    301062.37    14.971352 
  245500    1907.1972   -629.96018    308773.82    14.715927 
  246000    1987.6883    -632.7435    305319.12    14.746848 
  246500     1897.093   -638.43903    295793.31    14.809889 
  247000    1932.6994   -639.70399    299200.37    14.787728 
  247500    1976.2408   -635.46552    300985.29    14.720664 
  248000    2026.0281   -647.05042    295800.13    14.735476 
  248500    1927.7517   -637.30264    301744.05    14.706588 
  249000     1936.879   -667.60077    299834.78    14.807604 
  249500    1844.5376   -779.90979    288966.64    15.725134 
  250000     2185.753   -774.37113    308830.32    15.621319 
  250500    2074.6419   -708.31275    305073.48    15.145114 
  251000    1999.6619   -726.32434    296975.41    15.115922 
  251500    2122.8039   -761.05389    299555.42    15.437335 
  252000    1955.8349   -756.27925    299488.85    15.458531 
  252500    2022.2033   -762.05853    300661.09    15.482673 
  253000    2029.8892   -703.74702    297408.74    14.925964 
  253500    2015.7371   -719.91143    297161.34    14.973959 
  254000    1842.7373   -775.55596    289064.36     15.47816 
  254500    2167.7772    -673.6553    299190.91     14.87627 
  255000    1940.3207   -642.00668    299525.67    14.693549 
  255500    2185.9152   -647.76315    314364.95    14.656752 
  256000    2008.5901   -686.77026    299852.85    14.783538 
  256500    1924.2205   -767.80962    291404.31    15.367773 
  257000    2113.2138   -740.38966    307623.36    15.276653 
  257500    1836.5707   -717.23821    300770.64    15.271009 
  258000    2016.9997   -764.93932    293578.13    15.433488 
  258500    2070.4506   -702.31048    307057.51    14.935908 
  259000    1903.3314    -718.0553    293582.38    15.026327 
  259500    2051.6895   -709.17938    300089.95    15.113756 
  260000    1992.4009   -693.38566    304544.06    14.963189 
  260500    1800.1485   -781.10491    311114.81    15.684984 
  261000    1985.8762   -752.36575    303501.32    15.516342 
  261500    2157.8914   -790.37167    299401.16    15.758905 
  262000     1836.858    -786.6954     306130.7    15.725134 
  262500    1986.1115   -786.57207    284506.34    15.752141 
  263000    2106.0906   -797.97849    297689.33    15.769174 
  263500    1997.0583   -786.89658    297823.11    15.736795 
  264000    1981.9133   -803.53496    298492.62    15.723513 
  264500    2064.5165   -806.76403    289401.78    15.757591 
  265000    1875.7504   -802.88096    291390.29     15.76842 
  265500    2016.1524    -795.5772    291102.77    15.752325 
  266000     2023.573   -782.25183     314096.2    15.660704 
  266500    1875.5927   -672.36315    286695.49    14.890269 
  267000    2011.2788   -638.60008    312967.22      14.6604 
  267500    1908.2043   -654.68459    295018.65    14.750617 
  268000    1982.1775   -646.66853    296191.14    14.737261 
  268500    1936.8684   -634.19113    305962.09    14.712638 
  269000    2187.2109   -628.71253    305690.09    14.725569 
  269500    2131.6817   -661.44941    300738.54     14.86122 
  270000    1999.8153   -700.07023    301572.46    15.162668 
  270500     2082.676   -714.87934    301024.58    15.257623 
  271000    1946.4814   -731.34908    301335.72    15.427479 
  271500    1954.5957   -703.68868    296095.78    15.137926 
  272000    1978.4889   -692.74674    299775.34    15.103324 
  272500    1880.7475   -743.63095    298827.25    15.547864 
  273000    2098.4189   -691.55251    306941.61    15.050839 
  273500    2005.9952   -731.54312    299373.42     15.32892 
  274000    2228.9872    -757.5852    303257.16    15.481069 
  274500    2033.4641   -785.85749    289935.88    15.777725 
  275000    2040.0578   -729.26366    298378.67    15.198711 
  275500    2175.4939   -689.70166    306385.75    14.898508 
  276000    2016.9828   -761.23563    299618.04    15.516962 
  276500    1853.3482   -740.06917     302155.4     15.40861 
  277000    2215.0741   -615.59773    325275.41    14.697302 
  277500    2043.2724   -711.15259     301452.9    15.262628 
  278000     2067.218    -697.1872    301320.62    15.241364 
  278500    2032.7313   -704.30005    299238.73    15.381992 
  279000    1803.5707   -734.43198     300128.3    15.509521 
  279500    1876.3608   -728.45406    295598.72    15.538377 
  280000    2099.5025   -742.60763    299495.74    15.644082 
  280500    1914.6881   -702.97222    305660.54    15.366092 
  281000    2103.2829   -755.91641    288907.65    15.792733 
  281500    2053.5151   -750.81221    300118.87    15.671944 
  282000    1945.9247   -752.46671    301772.71    15.622846 
  282500    1972.6272    -763.3398    296066.63    15.736291 
  283000    2028.3633   -758.53336    307694.27    15.647045 
  283500    1885.2692   -761.54063    289731.59    15.848679 
  284000    2098.2131   -751.95561     301020.5    15.824205 
  284500    2020.9629   -728.87296    299818.61    15.578009 
  285000    1925.3261   -647.79083    300431.46    15.114567 
  285500    1998.9783   -647.79665    302395.86    15.089577 
  286000    1857.5523   -630.68362    307255.26    15.049981 
  286500    1996.2246   -700.64748    306285.63    15.507841 
  287000    2200.8194   -677.03569    301022.05    15.418941 
  287500    2025.8199   -641.82028    304864.05    15.029297 
  288000    1924.4205   -655.80106    293118.12    15.236234 
  288500    2132.6731   -684.90155    307279.66    15.433555 
  289000    1932.8866   -701.22736    302969.94    15.544508 
  289500    1999.2613   -690.51018    300178.45    15.576589 
  290000    2013.0668   -709.62952    294487.94    15.568441 
  290500    2006.7467   -705.64772    295684.85    15.596456 
  291000    1951.0185   -683.74552    304484.93    15.493742 
  291500     1845.088   -701.57715    301539.27    15.431559 
  292000    2023.0062   -712.28162    301223.19    15.510639 
  292500    2041.3735   -720.79615    285449.73    15.678102 
  293000    1987.8895   -645.51186    299009.06    15.143004 
  293500    1837.2819   -658.93848     298206.5    15.192243 
  294000    1883.7472   -659.10864     289127.3    15.200625 
  294500    2244.2618   -646.92613    294539.77    15.212146 
  295000    2009.2532   -635.47277    306166.39    15.089166 
  295500    1960.9834    -664.4428    291899.39     15.24185 
  296000    2262.4934    -638.2467    309743.77    15.096835 
  296500    2124.9767    -644.2618    294760.84    15.096309 
  297000    1890.7954   -647.32497    291869.15    15.177031 
  297500    1989.9145   -646.60241     296972.7    15.104744 
  298000    1967.9329   -641.03716       306967    15.067401 
  298500    1859.8408   -698.01856     298250.4    15.370559 
  299000    1742.2621   -625.09085    302432.28    14.917957 
  299500    2046.4309   -729.78424    300324.63    15.625193 
  300000    2014.6798   -720.67017    298470.04     15.44346 
  300500    2117.5035   -715.86687    301571.78    15.446809 
  301000    1941.9156   -672.99011    293110.34    15.192871 
  301500    2129.7426   -585.03578    296586.75     14.73449 
  302000    1979.1984   -582.49033    310536.63     14.67961 
  302500    2026.8068    -582.8403    308229.79    14.734875 
  303000    1994.8566   -584.30459    309442.55    14.674469 
  303500    1896.7241   -594.24713    278221.89    14.744022 
  304000    1923.1826   -597.42195    301733.78    14.680267 
  304500     2015.525   -590.02629    310559.13    14.706709 
  305000    2128.9413   -635.46507    302444.03    14.877991 
  305500    1974.7443    -594.6295    283828.77    14.757968 
  306000    1841.0599   -589.38172    281186.75    14.713282 
  306500    2031.0335   -589.89638    293568.48    14.686282 
  307000    1839.3925   -581.98131    302204.37    14.703673 
  307500    2050.1627   -583.37549    302830.07    14.716057 
  308000    1979.5962   -584.65687    321667.93     14.67158 
  308500    1980.0436   -595.89462    290361.37    14.717201 
  309000    1896.6107   -598.74654    294821.66    14.669301 
  309500      1999.02   -591.86881    300620.23    14.638212 
  310000    1922.9802   -579.29877     326934.3    14.650129 
  310500    1949.2765   -589.70801    300738.02    14.647591 
  311000    2329.1612   -589.87462    302564.78    14.739027 
  311500    2065.3368   -597.58203    279110.41    14.772371 
  312000    2114.1673   -603.04399    298404.46    14.829479 
  312500    1982.4483   -594.01071     304281.1    14.659087 
  313000    2229.6029   -583.10934    317677.68    14.670583 
  313500     2009.568   -589.22133    285570.99    14.706426 
  314000    1955.7619   -592.72774    291716.71    14.737998 
  314500    2091.1249   -592.66566    294743.15    14.666872 
  315000    1818.9122   -597.74973    301662.22     14.78505 
  315500     2067.153   -603.20625    296729.21     14.73447 
  316000    2009.5185   -591.03145    307338.43    14.682751 
  316500    1941.1438   -589.66793    306504.47    14.681234 
  317000    2000.9102     -601.228    292150.18    14.788243 
  317500    2023.4656    -698.1959    296672.42     15.53389 
  318000    2036.8764    -721.5308     300394.4    15.553725 
  318500    2010.6384   -683.40955    296544.89    15.364501 
  319000    2025.8052   -755.80984    300986.56    15.741543 
  319500    2077.6222   -753.84048    305568.92    15.696814 
  320000    2025.0195   -760.92309    298713.37    15.728138 
  320500    1860.8203   -761.48626    301070.41    15.744464 
  321000     1948.024   -705.45835    301040.94    15.259313 
  321500    1974.4627   -724.69516    291627.56    15.599967 
  322000    2071.4729   -761.54959    290551.44    15.771736 
  322500    2223.2608   -762.71143    303383.25      15.7803 
  323000    2098.0838   -740.10339    303100.69    15.437363 
  323500    1890.2178   -735.54511    297314.04    15.485174 
  324000    1975.2064   -694.11501    301712.96    15.136294 
  324500     2002.782   -733.68803    297085.81    15.398859 
  325000    1859.2905   -715.87499    304671.94    15.287157 
  325500    1972.7338   -681.29632    305877.28    14.868217 
  326000    1889.4215   -697.92908    301857.25    15.061444 
  326500    1931.8696   -709.22908    307238.18    14.977012 
  327000    1994.8344   -770.46346    294801.89    15.289428 
  327500     1997.397   -770.34152    308538.23    15.193126 
  328000    1977.4942   -778.85976     292174.1    15.372926 
  328500    2054.2811    -760.3562    308670.41    15.237459 
  329000    2050.8359   -772.51582    303390.77    15.246228 
  329500    2233.5186   -770.33897    296164.43    15.332948 
  330000    2175.7133   -763.49424    306331.07    15.271248 
  330500    2218.4373   -765.15542    300608.71    15.325452 
  331000    2017.2491    -761.1591    301679.72    15.318593 
  331500    1907.6705   -745.21128    300752.65    15.308167 
  332000    2021.9206    -761.3895    297352.25    15.331943 
  332500    2117.9123    -767.2623     303474.7     15.26108 
  333000    2040.8993   -762.66255    301749.34    15.288038 
  333500    1950.2635   -774.17351    294575.44    15.331567 
  334000    2017.7061   -764.01024    307608.28    15.206509 
  334500    1938.5472   -753.77906    308320.62    15.172833 
  335000    2007.8066   -767.54392    289925.99    15.387062 
  335500     1934.919   -763.46884    304926.02    15.213235 
  336000    2061.3644   -774.14179    291435.97    15.341545 
  336500     2236.765   -749.25837    308067.62    15.231896 
  337000    2109.6226    -758.0894    298415.93    15.412393 
  337500     2080.117    -747.8632    300976.15    15.334946 
  338000    2092.5598   -658.09565    293280.04    14.801011 
  338500    2005.8582   -687.93458    303982.84    14.885445 
  339000    2031.2924   -771.97944     291885.5     15.41358 
  339500    1946.6354   -768.66792    301399.59    15.267087 
  340000     1810.206   -757.52274    303318.32    15.305898 
  340500    1926.1824    -763.0594    300821.25    15.301784 
  341000    2024.3393   -761.88699    302499.13    15.292826 
  341500    2135.2359   -754.50115    302370.87     15.35525 
  342000    1805.4863   -666.71232    298240.86    14.812116 
  342500    1886.9625   -672.74131    297100.37    14.938482 
  343000    2014.2214   -709.16813    299495.64    15.015249 
  343500    1942.6947   -706.61774     299387.5    14.892021 
  344000    2083.8406   -691.76437    306675.53    14.787674 
  344500    1891.2752   -675.25754    312193.08      14.6932 
  345000    1900.9053   -763.76592    295354.91    15.469525 
  345500    2131.6908   -762.82136    295231.86    15.431505 
  346000    2131.9755   -758.52296    304622.65    15.244823 
  346500    1947.0133   -694.41229    305539.67    14.868227 
  347000    2027.0161   -766.66542    296668.34    15.489223 
  347500    2063.0748   -659.83577    292656.96    14.851564 
  348000    2007.8859   -651.98032    299427.21    14.792491 
  348500    1819.8748   -645.17047     286391.6    14.748989 
  349000    1937.1621   -625.03651    310852.68    14.651291 
  349500    2095.9609    -723.3875    298263.29    15.064512 
  350000    1796.3076   -681.77845    302184.04    14.845618 
  350500    1971.3834   -713.29594    300443.18    15.160926 
  351000    2019.0415   -700.65042    299781.42    14.933821 
  351500    1995.7297   -646.93043    291665.01    14.697565 
  352000    2013.0909   -689.91232    301734.63    14.780842 
  352500     1984.203   -692.64694    302091.62    14.781809 
  353000    1952.0815   -706.74444    300500.17    15.087469 
  353500    1934.6143   -686.18786    301104.79    14.862003 
  354000    1935.2367   -664.07383    296176.72    14.819064 
  354500      1956.49   -753.79314    301565.42    15.329419 
  355000    1891.7534   -760.12345    293205.27    15.397904 
  355500    1982.8778   -648.43929    298583.92    14.704918 
  356000     2003.102   -666.43366     295914.8    14.709725 
  356500    1922.7118   -702.73197    302270.32    14.905418 
  357000    1938.7782   -735.66354    304572.24    15.157208 
  357500      1943.57   -703.01107    300411.82    15.017371 
  358000    1876.5661   -684.37056    301436.77    14.843821 
  358500    1903.7745   -697.64446    305429.86    14.907045 
  359000    2013.2948   -713.21445    295672.81    15.108112 
  359500     2098.382   -710.83576     294525.8    15.139273 
  360000    1929.4298   -678.44115    298584.62    14.734434 
  360500    2003.9394    -730.1798     298910.2    15.075127 
  361000    2031.7336   -770.82899    294410.83    15.663472 
  361500    2065.7712   -758.38048    299632.64    15.530586 
  362000    1936.7373   -749.47515    301142.68    15.511065 
  362500    1940.8116    -692.1169     301682.4    15.316009 
  363000    2028.4966   -705.92456    301391.08    15.456996 
  363500    1934.6946   -681.71075     301305.7    15.294687 
  364000    2037.2713   -756.34302     301216.7    15.596962 
  364500    2248.5113   -747.52614    304891.95    15.578146 
  365000    1965.3976   -746.10092     305629.1     15.66061 
  365500    2070.1369   -759.33424    300218.61    15.789326 
  366000    1877.0152   -763.74833    298074.35     15.84574 
  366500    1890.4017   -750.66106     294297.6    15.862513 
  367000    2039.6124   -763.16441    296297.99    15.872932 
  367500    1781.7173   -762.14015    287444.43    15.894197 
  368000    2058.9896   -757.92843     307278.6    15.837298 
  368500    1976.5481   -759.89462    307883.52     15.81317 
  369000    1985.4043   -769.53018     294420.9    15.849603 
  369500    2002.2025   -763.54478    292006.39     15.85469 
  370000    1916.5581    -747.9429    297151.06    15.862533 
  370500    2091.1602   -752.15613    301982.52    15.767547 
  371000    2033.0441   -759.56477    308741.39    15.758268 
  371500    1972.8639   -753.55792    299393.35    15.821085 
  372000    1988.2319   -663.29817    298787.51    15.092738 
  372500    1988.7851   -657.13371    297300.18    15.112958 
  373000     1945.575   -657.02985    299310.44    15.144183 
  373500    2081.7348   -689.73005    302966.13    15.392762 
  374000    1967.4651   -654.65354    304321.11    15.195502 
  374500    1860.4499   -693.63266    301304.09     15.44422 
  375000     2162.699   -697.98122    300399.08     15.47941 
  375500    1950.6575   -708.69752    295229.66    15.623647 
  376000    1970.5911   -703.57406    310387.95     15.44439 
  376500    2052.0717   -753.11842    306258.45    15.889702 
  377000    1848.1708   -702.87417    296019.42    15.624163 
  377500    2028.3101   -710.08469    302367.72    15.502626 
  378000    2013.6971   -708.78073    290725.96    15.612919 
  378500    2121.8561   -680.63764    303570.78    15.419814 
  379000    2021.5878   -693.02197    308740.32     15.47936 
  379500    2171.9339   -695.76767    297405.85    15.573239 
  380000    1940.9194    -704.2893    296396.67    15.601354 
  380500    1911.0236   -688.68951    300057.16    15.534138 
  381000    2103.1016    -711.4432    300045.68    15.530713 
  381500    1863.3785   -695.41747    300394.16    15.476799 
  382000    2143.6893   -693.80839     303509.2    15.419137 
  382500    2045.7427   -693.69545    298128.72    15.528828 
  383000     1975.775   -681.50664     296843.5    15.300241 
  383500    1972.3499   -652.15843    304945.14    15.047881 
  384000     1922.652   -652.18751    298764.23    15.107428 
  384500    1993.0036   -632.15784    300697.21     15.16932 
  385000    2057.6225    -628.7421    306453.61    15.114781 
  385500     1935.672   -638.68654       304403    15.045316 
  386000    1906.7468    -621.8359    312115.04     15.07469 
  386500     2111.607   -626.71543    310083.56    15.097705 
  387000    1941.0421   -634.66302     294043.4     15.16566 
  387500    2191.9924   -639.64228    293976.02    15.180932 
  388000     1969.326   -627.97708     303605.3    15.162969 
  388500     1957.815   -650.62209    285961.43    15.242136 
  389000    2146.4271   -631.42079    306046.37    15.152878 
  389500    2019.7772   -608.45555    297559.68     14.87153 
  390000    1949.8059    -590.4151     292620.7    14.790363 
  390500     1994.476   -609.21283    292829.87    14.851759 
  391000    2058.0205   -597.92097    302957.66    14.721399 
  391500    2034.1179   -642.04165    302966.03    15.007403 
  392000    2225.4839    -661.9687    304896.28     14.94638 
  392500     1946.164   -622.85034    304716.06    14.894933 
  393000    1962.0911   -637.08201    292516.41    15.151501 
  393500    1979.8954   -626.21766    309080.01    15.093677 
  394000    2054.6026   -635.68894    307428.33    15.067101 
  394500    2034.5521   -621.67176    316342.23    15.090507 
  395000    2076.4584   -642.06469    297485.06    15.101308 
  395500    1982.2079   -651.01154    292208.95    15.165451 
  396000    2034.2514   -635.82334    295807.86    15.196848 
  396500    2053.7182   -625.42493    307155.45    15.086606 
  397000     1991.042    -629.5985    304525.27    15.157588 
  397500    1885.0476   -627.96372    306767.86    15.084601 
  398000    2146.1711   -632.76068    303192.31     15.10377 
  398500    1902.7117   -634.05135    305560.67    15.083314 
  399000    1993.9678   -638.44989    295369.46    15.133743 
  399500    1901.6541    -633.4872    296250.23    15.157648 
  400000    2046.7033   -640.41059    291571.92    15.189763 
  400500    1829.9804   -626.25958    309929.31    15.055635 
  401000    1956.8751   -627.18818    298298.77    15.163172 
  401500    2074.2784   -630.69188    304505.76    15.066931 
  402000    1799.2179   -636.94344    306686.61    15.082268 
  402500    2131.1967   -646.76887    295962.71    15.107151 
  403000    2090.5351   -681.97729    300726.96    15.339656 
  403500    1966.1532   -698.06541    300728.74    15.492669 
  404000    1906.0477   -706.97188    300740.01    15.517644 
  404500    1991.3183   -728.96631       297696    15.690751 
  405000      2045.08   -698.61388    305113.86    15.499558 
  405500     2013.137   -712.25783    304392.69    15.611526 
  406000    2105.2018   -693.60526    302372.03    15.593709 
  406500    2090.9437   -694.32209    301193.17    15.604881 
  407000    2041.6387   -680.31032    303169.68    15.355574 
  407500    2126.1877   -722.68648    296386.18     15.54996 
  408000    2045.5366   -700.98057    304514.08    15.294536 
  408500    1908.5821    -707.3557    301537.63    15.280944 
  409000    2083.6615   -645.02262    302608.04     14.87215 
  409500    1934.2679   -720.41841    302167.41    15.364043 
  410000    1913.7628   -765.73646    280843.55    15.892371 
  410500    2146.4409   -715.04067    303201.21    15.434016 
  411000    2052.9531   -701.55997    310511.69    15.383105 
  411500    2120.9262   -649.59206    299534.37    15.168026 
  412000    1944.3727    -645.3061    303897.97    15.060365 
  412500    2254.0976   -668.76989     301905.2    15.260468 
  413000    1869.7644   -697.46548    302204.83    15.441858 
  413500     2082.016   -700.38665     302332.6    15.484575 
  414000    2203.5344   -729.47294    300965.62    15.561241 
  414500    2107.3381   -686.90957    307950.25    15.444757 
  415000    2236.6771   -663.24134     297940.1     15.24401 
  415500    1734.8239   -650.78332     288408.1    15.215934 
  416000    2060.4354   -649.50104    300998.78    15.206627 
  416500    1960.3466   -621.01663     313302.8    15.050159 
  417000    2066.9898   -647.21301    299900.76    15.123705 
  417500    2057.4367   -694.93742    305059.54    15.588248 
  418000    2107.4007   -709.29635    300821.04    15.608852 
  418500    1827.7939   -703.37059    298695.82    15.557328 
  419000    1870.5905    -675.6709    300411.18    15.301582 
  419500    2024.3829   -693.24509    300565.45    15.510572 
  420000    2057.9866   -709.38158    296024.11    15.576093 
  420500    1970.7702   -671.78714    302418.95    15.339009 
  421000    1974.4749   -636.59035    296143.33    14.991011 
  421500    1886.5113   -676.17433    304654.11     15.33206 
  422000    1987.3589   -698.16421    305834.69    15.526106 
  422500    2179.5343   -668.70529    305470.13    15.211798 
  423000    2030.8336   -729.67652    301993.25    15.514292 
  423500    1907.5014    -759.1859    295849.65     15.69736 
  424000    1918.8767   -692.97046    298834.66    15.098659 
  424500    1849.8202   -716.82542    299684.96     15.33461 
  425000    2005.0935   -758.58825    301157.36    15.708979 
  425500    2021.7982   -758.23809    305369.41    15.743552 
  426000    1959.6969   -759.08677    300799.61    15.709242 
  426500    2151.8956   -769.58563    289500.07      15.8661 
  427000    2153.9794   -769.30581     294247.6    15.828305 
  427500    1973.6175   -760.17397     292235.9     15.86728 
  428000    1930.1888   -752.10746    296012.46    15.884475 
  428500    2033.3262   -735.29334    304471.61    15.726982 
  429000    1997.0673   -715.04605    294513.38    15.604142 
  429500    1837.9897   -705.09699    304259.73    15.573653 
  430000       1892.3   -705.13654    305345.67    15.543601 
  430500    1976.7882   -762.23065    294028.44    15.879794 
  431000    1980.8908   -751.38858     300837.6    15.892294 
  431500    2047.8615   -756.90243    303911.25    15.863676 
  432000    2011.4824   -758.23378    302883.42    15.876665 
  432500    1904.2857   -749.12774    302562.99    15.861317 
  433000    2010.9234   -748.76423    308483.16    15.853242 
  433500    2087.4305   -762.57755    277540.83    15.987154 
  434000    2000.3313   -663.57176    300361.04    15.209907 
  434500    2147.2113   -646.17796    300801.47    15.059267 
  435000    2061.6628   -677.27081    304964.27    15.287206 
  435500    2045.9751   -686.06438    304248.19    15.358624 
  436000    2073.8794    -670.9469    298529.47    15.137032 
  436500    1980.5898   -605.71613    309748.36    14.670114 
  437000    1969.9076   -705.26971    297148.42    15.255932 
  437500    2205.4042   -680.70379    305353.42    15.127324 
  438000    2274.0138   -764.03369    294577.08    15.829121 
  438500    2077.3819   -718.89344    293431.83    15.436052 
  439000    2076.9273   -697.34634    301001.31    15.405175 
  439500    1965.4944   -691.28827    301140.07    15.399301 
  440000    1923.0849   -686.99902    302389.17    15.385816 
  440500    2026.7377   -687.31794    300559.75    15.465865 
  441000    1978.6406   -684.25613    301361.13    15.358034 
  441500     2090.881   -755.28785    307466.66    15.739376 
  442000    1963.2913   -753.78948    300307.58    15.835423 
  442500    1908.5523   -758.95092    298770.42    15.898103 
  443000    1971.2348   -753.51334    309176.23    15.818183 
  443500    1950.7498   -754.10606    304571.13    15.866469 
  444000    2015.6605   -759.72507    303965.56    15.822139 
  444500    1975.5075   -761.35653    304420.32    15.779297 
  445000    1922.0898   -755.18186    302241.14    15.809486 
  445500    2010.6486    -759.0888    298704.08    15.823236 
  446000    1852.9999   -762.11414    287808.73    15.871664 
  446500    2028.1772    -755.2209    302717.26    15.702618 
  447000    2043.5336   -754.98339    304605.94    15.688476 
  447500    2105.7196    -738.1635    302244.26    15.520307 
  448000    1922.7369   -674.95372    299864.38    15.101599 
  448500    1843.3314   -748.01352    294271.17    15.600481 
  449000    1758.6675   -701.46335    292726.32    15.378286 
  449500    2000.9791    -728.5557    299784.32    15.317793 
  450000    1799.7159   -649.08947    301919.04    14.757167 
  450500    1835.3294    -633.4383    301113.73    14.700992 
  451000    1801.4729   -640.76076     293505.2    14.809056 
  451500    1935.3697    -627.2648    298199.84    14.736995 
  452000    2068.4227   -722.92761    299007.43    15.363948 
  452500    1967.3464   -704.04029    300668.93    15.291989 
  453000    2015.3556    -708.9274    300841.39    15.307662 
  453500    2034.1218   -691.42778    299963.08    15.177994 
  454000    2050.9871   -638.59637    303652.62    14.933753 
  454500    2085.5121   -717.71841    297787.91    15.482763 
  455000    1946.0516   -651.88781    298604.72    15.108499 
  455500    2016.0135   -638.09955    303399.23    14.921243 
  456000    2039.8227    -703.8308    298115.88    15.451197 
  456500    2040.0482   -677.72739    299845.52    15.257999 
  457000    2208.9184   -708.63763    302635.43    15.335418 
  457500    1973.7873   -700.72705    300293.48    15.275742 
  458000    2056.3386   -694.39278    304027.71    15.143655 
  458500    2068.3567   -742.36097    298776.55    15.292847 
  459000    2102.9562   -639.78907    298692.17    14.644962 
  459500    1903.5573     -694.074    303154.52    14.973705 
  460000    1945.8699   -710.28658    306003.28    14.956803 
  460500    1909.2537   -741.68886    300219.03    15.093264 
  461000     1769.325   -749.14359    302362.18    15.266756 
  461500    1895.5536   -769.24862    290647.69    15.433987 
  462000    1961.3909   -670.13905    294444.24    14.888776 
  462500    1876.3869   -640.62584    298417.26    14.771975 
  463000    2154.7058   -738.13393     303967.2    15.326856 
  463500    1955.7613   -792.41622    300524.63    15.790333 
  464000    2192.8539    -785.2507     295361.9    15.750689 
  464500     1975.512   -774.12394    305190.95    15.749805 
  465000    1962.4831   -756.83143       307071    15.649922 
  465500    2014.0127   -685.71908    298273.43    15.059862 
  466000     2007.549   -709.11695    303463.98    15.175219 
  466500     2090.362   -745.38085    303537.85    15.415088 
  467000    2097.0868   -760.60923    302575.32    15.331737 
  467500    2121.5948   -704.77589     297409.3    14.846386 
  468000    1964.9514   -736.01461    299261.24    14.982356 
  468500    1882.4514   -710.58655     301797.2    14.950603 
  469000    1894.6083   -754.77434    301264.34    15.107321 
  469500    1853.0824   -746.18958    293542.78    15.086376 
  470000    1815.1357   -704.13007    299007.67     14.91982 
  470500    2226.0878    -684.5129    300142.52    14.883857 
  471000    2051.2829   -768.51787    292474.57    15.376096 
  471500    1938.1475   -763.70722    298162.03    15.364271 
  472000    1995.0768    -637.9449    312542.94    14.606458 
  472500    1906.0328   -669.08213    296289.35    14.851764 
  473000    1936.9523   -697.10532    298334.37    15.015029 
  473500    1937.7974    -723.7875     297838.9    15.112275 
  474000    2058.0859   -754.00503    303217.74    15.177414 
  474500    1990.2423   -650.03185    304921.14    14.601756 
  475000    1800.5919   -641.46463    291359.14    14.638656 
  475500    2017.5224    -714.9309    296159.69    14.934696 
  476000    2047.1714    -645.9881    307325.71    14.605171 
  476500    1985.2488   -647.88866    290522.95    14.658158 
  477000    1863.8036    -678.5512    299401.52    14.725935 
  477500    1888.1114   -743.52844     302348.5     15.16595 
  478000     1850.823   -719.65647    299658.56    14.927072 
  478500    1988.6263   -710.85979    295849.22    14.965253 
  479000     2194.234   -718.36314    300305.87    14.941487 
  479500    2049.4217   -707.98756    303070.03    14.830533 
  480000    1880.9673   -699.30142    300552.89     14.82622 
  480500    2094.7611   -680.57877     305992.7    14.700338 
  481000    2009.2355   -709.89468    292018.92    14.916595 
  481500    1893.7092   -698.38848    298482.38    14.835964 
  482000    1950.2266    -689.9864    295026.11    14.835073 
  482500    2002.2773   -694.50593    303086.11    14.841397 
  483000    1851.3067   -717.55858    294006.73     14.93658 
  483500    1811.5997   -701.81513    294855.79    15.122202 
  484000    1891.7471   -706.05759     294903.3    15.095583 
  484500    2120.8323   -627.06834    314293.13    14.622128 
  485000    1855.7679   -636.57466    294823.69    14.779577 
  485500    1872.2911    -629.1697    300799.59    14.778695 
  486000    1804.8699   -701.51534    295282.36    15.337332 
  486500    1834.7654   -761.34899    302246.55    15.735388 
  487000    1849.6096   -760.19421    292551.03    15.831084 
  487500    2203.2498   -772.06788    305340.84    15.763863 
  488000    2029.9532   -775.68133     306828.2    15.799605 
  488500    2030.9605   -745.43208    300215.65    15.616454 
  489000    1946.4988   -731.78915    303296.17      15.4333 
  489500    1982.2487   -725.17194    296411.29    15.356069 
  490000    2045.7078   -686.70643    301663.01    14.877694 
  490500    1987.1425   -713.54788    294916.32    14.890722 
  491000    1950.3491    -764.5813    303129.53    15.256244 
  491500    2026.5619   -764.88527    299805.34    15.291128 
  492000    1914.7128   -768.59662    297625.73    15.332968 
  492500    1825.9382   -747.19358    301263.08    15.253663 
  493000    1919.3858   -713.32536    294213.42    14.888194 
  493500    1851.1806   -745.55967    303479.09    15.125798 
  494000    1986.1387   -765.47159    303206.88    15.173627 
  494500    1840.9811    -758.4074    303911.42    15.130127 
  495000    2005.6161   -782.03712    299134.45    15.314816 
  495500    1948.2107   -627.85138    348927.73    14.534992 
  496000    2062.1443   -759.22316    296495.73    15.458858 
  496500     1912.195   -741.25293     306193.2    15.315634 
  497000    1903.6525   -754.30929    296947.48    15.448488 
  497500     1832.311   -749.58956    303103.72    15.328393 
  498000    2091.3945   -756.40067    306140.48    15.338871 
  498500    1741.2149   -763.34569    297044.84    15.311493 
  499000    1994.1508   -775.71423    299273.82     15.33643 
  499500    2091.3902   -714.40502    302144.27    14.870588 
  500000     1843.777   -703.82766    298446.66    14.830624 
  500500    1881.0513   -652.57802    307282.44    14.584004 
  501000    1946.7886   -760.96798    299003.12    15.324043 
  501500    1992.3172   -697.40118    296909.35    15.035658 
  502000    2046.1736    -656.9276    300079.08    14.786666 
  502500     2148.058   -652.72252     291400.6    14.770446 
  503000    2007.5161   -650.32562    301909.33    14.701172 
  503500    1770.0442   -635.15314    300973.12    14.678939 
  504000     2018.975   -659.73817    300412.49    14.685428 
  504500    2277.9391    -714.8842    296737.98    15.045725 
  505000    2071.1054    -743.7783    305751.25    15.294563 
  505500    2034.2912   -765.55714    295494.98    15.414492 
  506000    1962.4875   -686.44992    296670.97    14.854291 
  506500    1958.1166   -646.76251    296927.55    14.649073 
  507000    1988.8152   -658.40008    295995.91    14.657256 
  507500    1904.3102   -634.68301    287405.28    14.723482 
  508000    2133.8097   -653.82304    308006.86    14.734899 
  508500    1849.8237   -675.39704    296675.36    14.858815 
  509000    2192.1285   -700.48764    302202.97    15.050311 
  509500    1999.9502   -646.80529    295154.64    14.632124 
  510000    1884.8012   -686.60343    298937.59    14.875613 
  510500    2015.4624   -644.05445    316728.69    14.570888 
  511000    1885.2661   -659.97188    295024.56    14.672346 
  511500    1795.4478   -640.25624    302321.94    14.693548 
  512000    1880.9643   -649.63612    288122.18    14.635192 
  512500    1897.0279   -707.61874    301801.66    15.012174 
  513000    1953.7438   -671.89059    296302.77    15.000548 
  513500    2062.9886   -756.62985    307622.25    15.745531 
  514000    1997.6328   -750.31231    299723.37    15.641251 
  514500     1840.994   -713.82256     295616.3    15.259947 
  515000    1986.5178   -680.91826    302496.25    14.893707 
  515500    2126.9519   -692.97881    307473.13    14.941987 
  516000    2098.6815   -734.79114    298861.12    15.313189 
  516500    2038.4756   -625.77456    308027.03    14.616558 
  517000    2041.4575   -629.94916    311470.62    14.588306 
  517500     2066.741   -669.34678    306648.97    14.786174 
  518000    2033.7228   -693.41332    307979.49    15.031424 
  518500    2048.2628   -698.62553       300348    14.968506 
  519000    1966.6159   -676.43649    290683.32    14.855343 
  519500    1880.7214   -651.05694    292611.09    14.700437 
  520000     1953.378   -682.88074    306889.03    14.867888 
  520500    2044.6163   -766.47094     300121.9    15.300564 
  521000    2009.7892   -657.40264    300337.97    14.605483 
  521500    2035.7625   -663.31192    311910.41    14.627162 
  522000     2033.706   -670.14382    300041.85    14.735686 
  522500    1933.1515   -677.29999    297532.99    14.847484 
  523000    1936.6533    -699.6178     304059.6    14.878209 
  523500    1902.6113   -703.40797    305165.44    15.129169 
  524000    2152.7879   -611.45529    316753.19    14.634937 
  524500    1856.4923   -629.07086    297233.72    14.760439 
  525000     2143.898   -700.60913    301042.59    15.155663 
  525500    2069.0289   -700.03324    304676.19    15.067762 
  526000     1990.659    -698.6683     298319.7    14.989275 
  526500    1884.1157   -629.52813     303059.6    14.653474 
  527000    2025.4483   -715.92065    299699.02    15.172821 
  527500    2028.2656   -675.83944    292039.06     14.73852 
  528000    2006.7955   -655.28313    295763.52    14.647674 
  528500     2060.963   -655.58346     298090.9    14.615099 
  529000    1933.2074   -654.73354    300236.27    14.674562 
  529500    1806.8332   -758.26815    301802.37    15.160097 
  530000    1937.6784   -766.98802     299008.4    15.192422 
  530500    2004.4999   -697.62309    299709.65    14.912253 
  531000    1993.9854    -635.9729    299259.14    14.626087 
  531500     2040.761   -692.78726    301350.16    14.896293 
  532000     2013.023   -766.26478    292248.04    15.456879 
  532500    2118.6979   -773.90902    302934.34    15.722393 
  533000    2139.2652   -754.95697    299114.83    15.489665 
  533500    2100.7601   -735.02153    299358.55    15.329469 
  534000    2147.6117   -778.15615    305851.68     15.70589 
  534500    2003.7973   -751.85866    299004.11    15.348382 
  535000    2034.8833   -642.52823    296401.89    14.782609 
  535500    2008.3527   -640.16862    296807.52     14.76117 
  536000    2143.9218   -630.59845    308059.06    14.635609 
  536500    1959.6848   -728.30716    301658.01    15.188218 
  537000     2197.507   -761.62293    296459.09    15.465305 
  537500    1917.0626   -756.36938    294963.54    15.507252 
  538000    2154.7953   -765.51033    294472.39    15.452655 
  538500    2228.2673    -763.1951    301026.86    15.390342 
  539000    2018.9694   -751.81931    295523.79    15.385087 
  539500    1873.5752   -753.36775    302172.86    15.358208 
  540000    1898.0753   -737.65227     294490.9    15.190162 
  540500    1992.0209   -665.06719    294890.04    14.808434 
  541000     2034.798   -638.14313    298351.23    14.708364 
  541500     1974.456   -632.62487     295195.9    14.793117 
  542000    2090.7554   -625.98321    296632.96     14.73057 
  542500    2023.0027   -644.42785    296325.27    14.783884 
  543000    1805.0321   -687.29551    299993.34     15.26461 
  543500    1915.4515   -735.38311    297450.02    15.573948 
  544000    1896.5943   -763.05138    300624.06    15.771664 
  544500    1816.7098   -761.83322    300898.25    15.804194 
  545000    2201.6069    -763.9621     298769.3    15.829021 
  545500    1994.6401   -770.70926    296122.32     15.84227 
  546000    1900.2788   -748.43003    300544.49     15.64352 
  546500    1932.2445    -759.3356    303000.02    15.787066 
  547000    1888.1891   -759.76411     305705.3    15.780292 
  547500    1964.2586   -767.11986    298567.55    15.826275 
  548000     2061.052   -722.50623    301824.03     15.52086 
  548500    2208.3857   -627.85743    303359.81     14.94756 
  549000    2093.8602   -716.00808    302327.98    15.527517 
  549500    1980.8201   -678.99048    304654.48    15.357484 
  550000    1961.7831   -690.69755    302656.01    15.384734 
  550500    1957.0041   -702.44147    298766.78    15.460548 
  551000    2042.4682   -699.94059    302317.16    15.345721 
  551500     2003.107   -640.17297    298403.42    14.854667 
  552000    2146.7338   -640.05456    295205.44     14.69225 
  552500    2123.9442   -674.34438    288454.72    14.879992 
  553000    1829.3056   -626.81245    297354.96    14.638307 
  553500    1876.5975   -664.37942    302116.74    14.851866 
  554000    1976.6144   -665.56723    310829.08    14.754727 
  554500    2209.3236   -668.31634    307464.86    14.744777 
  555000    1872.8409   -659.79239    303092.12    14.786076 
  555500    1996.3944   -649.77555    294038.42    14.781162 
  556000    1952.4624   -643.14868    303112.63    14.720381 
  556500     2129.878   -614.60684    314054.13    14.575794 
  557000    2177.5201   -627.56778    303679.53    14.636061 
  557500    2043.8273   -677.53075    290386.86     14.87342 
  558000    2164.8919    -609.4755    323107.12     14.55624 
  558500     1805.291    -626.4544    277953.93    14.614186 
  559000    2040.6175   -650.84994     304976.5    14.729245 
  559500    1993.7968   -708.51594    307910.61    15.054252 
  560000    1796.5314   -637.42597    293994.51    14.703848 
  560500    2088.1032    -616.5441    296172.38    14.595604 
  561000    2070.3131   -621.12783     290818.2    14.690181 
  561500    2043.3415   -635.51868    293097.65    14.642636 
  562000    2044.3731   -596.28049    330627.34    14.592323 
  562500    1887.9364   -645.29195    297382.56    14.736625 
  563000    2040.8019   -618.55133    298130.34    14.622088 
  563500    2111.0343   -714.50392    290762.68      15.1351 
  564000    1906.0454   -628.71896    309915.46    14.628292 
  564500    1964.7012    -631.3904    295137.75    14.654235 
  565000    2038.5977   -686.31114    301741.31    14.905006 
  565500    1880.9102   -644.44114    299651.99    14.693224 
  566000    2150.3206   -635.25906    302356.07    14.699881 
  566500    2031.6161   -635.88028     311759.9    14.643546 
  567000    2158.9381   -646.72355    313495.62    14.741199 
  567500    2049.1676   -649.68725    300357.02     14.71325 
  568000    1798.6908   -649.63251    299464.23     14.75348 
  568500    1992.5529    -674.7147    298843.66    15.006078 
  569000    2030.0109   -608.68776    303525.81    14.608591 
  569500    2023.5433   -634.31084    302527.34    14.663808 
  570000    1861.5575   -680.36161    302587.55    14.875691 
  570500     2033.507    -702.6227     295190.2    15.040276 
  571000    1993.5797   -693.66498    310701.09    14.964482 
  571500    2003.8058   -647.45927    293261.85    14.737793 
  572000    1835.9558   -671.37492    304743.88    14.820839 
  572500    1971.3753   -637.72946    288238.28    14.752162 
  573000     1930.606   -639.74442     305026.7    14.686251 
  573500    1884.9868   -641.27418    290249.21    14.814034 
  574000    1845.7264   -634.52738    288248.53    14.760731 
  574500     1923.974    -644.5703    293585.01    14.818238 
  575000    1855.9609   -681.50692     291425.2    15.003637 
  575500    2228.7872   -641.81715    304550.57    14.665153 
  576000    1898.4596   -631.42428    303429.18    14.668822 
  576500    1885.9072   -633.17255    301008.76    14.646436 
  577000    1986.8528   -670.23372    296004.82    14.896501 
  577500     1923.489   -622.13807    296772.99    14.665752 
  578000    2133.8825   -639.88992    302847.25    14.740218 
  578500    2033.9281   -627.10375    297555.03    14.788336 
  579000    1943.0838   -737.87305    299226.76    15.586633 
  579500     2120.349   -740.95339    297837.44    15.597612 
  580000    2015.1963   -764.17372    300296.49    15.827999 
  580500    1886.2527   -755.56183     306926.6    15.753192 
  581000    2019.7076   -724.19441     297371.4    15.613757 
  581500    1998.3201   -606.73235    307139.62    14.784437 
  582000    2140.2878   -690.94794    300791.85    15.341637 
  582500    1882.1789   -707.08032    296579.48    15.516011 
  583000    1884.4725    -756.0108    289129.49    15.893033 
  583500    2036.4505   -725.05426    299518.14    15.592623 
  584000    1959.5326   -694.08614    309540.51    15.231446 
  584500    2075.0158   -753.32406    304747.81    15.682261 
  585000    2020.4021   -735.69774    300907.53    15.557339 
  585500     2131.103   -730.15302    301635.09    15.412379 
  586000    2040.9393   -744.19227    299560.26    15.491822 
  586500    1824.3655   -695.05055    299814.01    15.123778 
  587000     1995.786   -759.18431     298176.9    15.623432 
  587500    2030.3447   -742.55726    290278.96    15.465428 
  588000     1969.462   -735.18134    305877.14    15.502803 
  588500    2230.9053   -768.15882    297525.24     15.86697 
  589000    1919.6404   -757.21616    297890.72    15.786636 
  589500    1878.1443   -761.76496    301162.42    15.809425 
  590000    2109.0608   -763.45196    290596.23    15.878124 
  590500    2072.9532   -735.48921    306714.08    15.598236 
  591000    2185.1738   -746.77198    308940.13    15.673702 
  591500    1904.2222   -761.49604    295299.62    15.807432 
  592000    2139.7334   -757.52964    303976.33     15.83426 
  592500    2038.2162   -765.92259    300444.64    15.823225 
  593000    2007.9255   -755.21041    304981.53    15.657564 
  593500    2067.2792   -730.46548    297014.68    15.440382 
  594000    2009.6741   -630.13467    298325.43    14.730086 
  594500    1984.9091   -628.47157    305211.01    14.618603 
  595000    2027.2559   -638.58691    303193.47    14.710259 
  595500    1856.4035   -622.23328    298126.37    14.744712 
  596000    1817.6747    -705.3391    298930.68    15.440279 
  596500    2059.6776   -700.46512    301047.17    15.393138 
  597000    1960.6972   -696.32421    295864.47    15.431158 
  597500    2263.0379   -678.30808    304053.72    15.284993 
  598000    1912.8385    -686.6358    302582.42    15.361205 
  598500    1828.3312   -749.01679    302102.99      15.7743 
  599000    2218.3621   -760.01227    289426.27    15.746508 
  599500    1981.4745   -713.49474    298170.98    15.376927 
  600000    2071.6866   -705.52185    293862.17     15.14998 
  600500     2116.912   -683.54013    300216.68    15.140586 
  601000    1856.0894   -682.92678    304391.77    15.118116 
  601500    1990.6328   -753.03531    302331.59    15.618683 
  602000    2056.5713   -764.13132    297894.22    15.808517 
  602500    2080.5115   -781.53244    294621.39    15.793482 
  603000    2132.0581   -781.67624    297116.02    15.815777 
  603500    1907.2973   -760.18703    297108.79    15.542732 
  604000    1904.4264    -658.1974    290682.04    14.783242 
  604500    1998.1755   -711.18393    301633.86    15.004406 
  605000    1893.1006    -708.6767    291262.86    14.962592 
  605500    1987.4591   -711.96111    295418.07    15.112977 
  606000    1948.3075   -689.32334     306787.7    14.861383 
  606500    1866.6284   -659.38445     296772.1    14.783591 
  607000    1985.8907    -708.1266    294149.17    15.030396 
  607500    1930.7037   -620.66175    299482.92    14.683569 
  608000     2081.015   -641.36828    295998.24     14.81987 
  608500    1981.8448     -629.822    298372.26    14.728407 
  609000    1927.1129    -627.1404     301902.6    14.660281 
  609500    2344.6371   -657.51345    297974.05     14.86717 
  610000    1971.3948   -706.56657    301952.55    15.101178 
  610500    2115.2569    -692.1474    302363.81    15.004733 
  611000    1973.8598   -664.37749    294619.44    14.892565 
  611500    2027.7532   -669.01265    298626.98     14.83797 
  612000    2119.1805   -653.49994    303233.16    14.690637 
  612500    1990.5772   -717.17194    294670.31    15.028237 
  613000    1930.7697   -637.74321    319683.55    14.547632 
  613500    2048.2288   -731.57725    300023.51    15.053943 
  614000    1927.8808   -758.93481    295890.27    15.137408 
  614500    1805.2925   -751.23333    297180.26     15.10554 
  615000    1976.2989   -718.76859    293788.09    14.977328 
  615500    1947.4657   -690.49018    304875.88    14.790232 
  616000    1920.2639   -751.37408    303093.34    15.119488 
  616500    2073.5091   -696.97039    306073.67    14.979549 
  617000    1909.6398   -713.85306    296307.16    15.051344 
  617500    2042.3725   -692.38932    303602.99    14.880721 
  618000    2066.9023   -685.18362    304473.73    14.897621 
  618500    1997.5069   -714.47849    298042.44    14.992666 
  619000    1915.1932   -657.23075    304609.67    14.668743 
[...]
14848500     2111.161   -762.89419     303028.4    15.825576 
14849000    2006.0337   -768.61961     302192.2    15.838415 
14849500    2133.6873   -769.16289    292556.58    15.858349 
14850000      1918.34   -690.59398    298307.79    15.371767 
14850500    2094.1493   -701.66064    299454.17    15.377084 
14851000    1912.9087   -687.08661    300192.73    15.444867 
14851500    1999.8979   -683.68064    302889.95    15.357656 
14852000    1929.2694   -712.13986    298934.55    15.504447 
14852500    1860.4568   -645.17232    292840.39    15.022362 
14853000    1914.3023   -646.99765    293373.31    15.027799 
14853500    1840.1529   -661.91149     291219.1    15.129458 
14854000    2106.1647   -635.33749     298333.5    15.001871 
14854500    2061.7664   -667.96491    306685.28    15.098387 
14855000    2119.4802   -774.41391    280697.82    15.841774 
14855500    1994.4346   -751.15001    300650.32    15.677533 
14856000    2022.0801    -732.7339     301118.7    15.648696 
14856500    2011.9654    -752.6988    295384.56    15.803318 
14857000    2110.4351   -758.45434    307908.91     15.63197 
14857500    2009.7327   -760.63696    300007.93    15.574103 
14858000    1857.1759   -764.00497    296843.13    15.621312 
14858500      1948.85   -744.90672    308353.42    15.366587 
14859000    1910.3772   -750.17328    296393.79    15.422582 
14859500    2001.3293   -764.66891    296560.51    15.660367 
14860000    2073.7515   -754.04648    294582.12    15.469478 
14860500    2024.1887   -744.92477    305035.13    15.383665 
14861000    1945.6115   -755.83062    296787.43    15.460354 
14861500    1981.7903   -771.61077    299747.02    15.737128 
14862000    1932.4842   -766.06355     300724.1    15.704017 
14862500    1855.4645   -753.52085    303520.31    15.623815 
14863000    1927.5327   -761.14055    304580.02    15.776617 
14863500    2134.8258   -746.58001    305413.07    15.604426 
14864000    2128.3385   -744.11266    303347.55    15.495285 
14864500    2041.4631   -693.20791    303923.63    15.011078 
14865000    2152.3526    -755.7099    294042.12     15.25483 
14865500    2083.5013   -759.19126    299687.39    15.468897 
14866000    2016.5431   -757.34264    304878.59    15.486209 
14866500    2104.9667   -764.21326    298976.18    15.544761 
14867000    1857.0837   -755.03404    304229.85    15.514732 
14867500    1854.9012   -705.38346    302601.77    15.097733 
14868000    1997.5666   -748.79753    301810.78    15.462736 
14868500    1914.2612   -706.25286    299181.34    15.146859 
14869000    2044.9762   -716.84259    295080.37    15.089482 
14869500    2100.3779   -704.11903    303868.55    15.003815 
14870000    1931.0952   -694.47393    307738.71    15.073803 
14870500    2017.3397   -680.92647    305022.26    14.873584 
14871000    1967.9819   -673.12624    307984.04    14.737357 
14871500    1864.5832   -679.32818    295935.99     14.87779 
14872000    2042.3984   -687.91834       297640    14.865711 
14872500    2063.3513   -695.55497    299428.99     14.84856 
14873000    1907.6441   -697.34813    298907.06    14.840597 
14873500    1982.2131   -671.28614    310997.62    14.744652 
14874000    1996.3587   -713.82807    307914.22    15.053826 
14874500    2025.4074   -758.61681    299594.14    15.364429 
14875000    1976.0083   -662.37334    305566.09    14.751497 
14875500    1893.4429   -725.61037    287268.12    15.189631 
14876000     1903.524   -670.71359    292065.15    14.852461 
14876500    1958.9446   -701.42291    289505.99    14.883137 
14877000    2032.0849   -677.90367    302593.11    14.796706 
14877500    2024.6446   -701.04928     311276.1    14.846707 
14878000    2161.0694   -750.06764    310088.21    15.050466 
14878500    1925.1721   -766.82517    292809.85    15.257377 
14879000    1999.5225   -762.37898    293970.51    15.198043 
14879500    1905.7359   -761.54106    292049.84    15.167511 
14880000    2036.3176    -746.6953     297690.6    15.198372 
14880500    1959.5963   -747.37352    305518.11    15.104122 
14881000    1886.5999   -762.09756    289152.52     15.28499 
14881500    1875.1926   -716.82589    294268.71    15.148833 
14882000    2248.3088   -710.97871    301570.79    15.173441 
14882500    1961.7293   -784.79229    301275.35    15.787997 
14883000    1863.9763   -771.15873     300198.5    15.780755 
14883500    1922.7305   -763.95906    291806.72    15.871724 
14884000    2165.7969   -752.12183    295730.83    15.680538 
14884500    1993.8872   -767.92575    303963.03    15.859242 
14885000    1727.4706   -760.26662    299911.82    15.780745 
14885500    1989.8172   -753.58025     298318.4    15.862438 
14886000     2038.003   -753.87784    296636.04    15.889115 
14886500     1938.552   -686.94247    303818.16    15.341259 
14887000    2017.3936   -670.73645     306582.1    15.339555 
14887500    1857.0516    -638.4507     296832.5    15.005313 
14888000     2040.695    -593.6251    300166.03    14.616926 
14888500    1821.4518    -598.9668    307152.88    14.536325 
14889000    2067.1516   -593.30802    313668.92    14.554132 
14889500    2038.3494   -601.74199    286910.96    14.581842 
14890000    1976.9179   -599.21931    313966.77    14.541687 
14890500    2081.0819   -621.09735     300569.4    14.529549 
14891000     1900.571    -617.1601    286494.93    14.544601 
14891500    2002.1779   -648.37161    291662.16    14.577573 
14892000    1974.2662   -659.13592     301135.1     14.67585 
14892500    2138.6125   -675.45854     310656.7    14.754391 
14893000    1909.0463   -762.58827    299349.11    15.439666 
14893500    1932.2322   -758.63564    302233.17    15.456113 
14894000    1961.2552   -746.74795    303371.12    15.521564 
14894500    2084.9438    -752.8078     306596.6      15.5118 
14895000    2003.2302   -754.55842    303639.09    15.513117 
14895500     1865.689    -734.2874    300822.35    15.385478 
14896000    2219.2396   -768.52179    309175.72    15.863664 
14896500    2010.8938   -765.58649    294256.56    15.865536 
14897000    1931.2592    -761.3549    299193.45    15.772453 
14897500    1974.4285   -748.18929    303013.11    15.762763 
14898000    1842.7686   -695.98263     295961.4    15.520841 
14898500    1921.1089   -641.56168    301855.36    15.064896 
14899000    1946.0249   -645.46366    299202.23    15.078884 
14899500     2011.939   -643.52667    294949.36    14.841668 
14900000    1984.6941    -598.1179    307293.58    14.556117 
14900500    2085.9831   -603.94855    287419.16    14.675926 
14901000    1952.1622   -590.47606     297541.1    14.611442 
14901500    1968.2686   -629.67563    298488.75    14.898499 
14902000    2108.5956    -693.0371    303056.48    15.343319 
14902500     1895.179   -703.50273    298108.53    15.482282 
14903000    1825.0566   -694.08389    295580.21     15.40537 
14903500     2030.378   -694.81041    300085.78    15.348571 
14904000    1861.6707   -675.34967    302536.76    15.236049 
14904500    1865.7411   -698.20549    298664.28    15.256916 
14905000    2182.5095   -727.57024     302760.5    15.331902 
14905500    2215.9049   -745.09192    296177.14    15.487317 
14906000    2007.4489   -743.35041    298490.74    15.531415 
14906500    1985.5107    -752.0469    296344.21    15.527617 
14907000    2013.2763    -753.9625    287379.15    15.685316 
14907500     1810.866   -733.63777    301241.76     15.47017 
14908000    1775.5333   -700.20635    293930.08    15.338237 
14908500    1916.7422   -686.96591    305496.05    15.074147 
14909000    2051.2802   -711.37926    303025.57     15.10667 
14909500    2008.7284   -732.22671    294929.16    15.288332 
14910000    2012.1564   -713.14701    297918.53    15.141001 
14910500    1962.0273   -760.41281    299527.88    15.366049 
14911000    1965.2047   -747.28395     293232.7    15.216375 
14911500    1821.0087   -715.37285    295124.95    15.205108 
14912000    1983.7014   -608.53522    302465.41    14.521692 
14912500    2039.2777    -607.9428    305989.41    14.514789 
14913000    2193.3095   -627.73228    310107.62    14.572809 
14913500    2019.6206   -649.45497    305017.84    14.519213 
14914000     1919.552   -708.77292    302104.34    14.955882 
14914500    2108.4306   -770.46716    296522.24    15.537878 
14915000    1854.6201   -741.30642    296389.38    15.436453 
14915500    1857.6512   -774.25851    302285.07    15.589469 
14916000    2012.8832   -690.70539    292361.48    14.934557 
14916500    2055.5564   -725.88136    297099.49    15.195074 
14917000    1842.3291   -749.49781    300285.13    15.434884 
14917500    1882.3875   -689.35026    300073.02    15.033526 
14918000    1993.1346   -719.49805    299015.35    15.078929 
14918500    2048.5346   -728.21229    305278.33    15.069506 
14919000    2151.9101   -760.45773    296226.01    15.271463 
14919500    2188.4416   -762.14107    294562.59    15.241337 
14920000    1926.3287   -748.56589    303911.24    15.137679 
14920500    1976.7048   -737.56302    307246.32    15.028463 
14921000    2002.0137   -760.68065    292023.55    15.209897 
14921500    1857.2683   -727.83133    297521.18    14.911535 
14922000    1925.9661   -765.56862    293764.87    15.211407 
14922500    1962.1087    -755.2197    304869.39     15.08772 
14923000    2112.0898   -746.22194    300238.68    15.200059 
14923500    2103.9881   -753.46915    297190.26    15.184788 
14924000    2148.3603   -747.25987       299472    15.196279 
14924500    2185.7295   -749.10321    308713.14     15.04066 
14925000     2172.319   -701.45346    300380.49    14.805849 
14925500     2076.477   -611.49208    305140.18    14.506351 
14926000    2041.5251   -599.84604    296352.12    14.582181 
14926500    1992.7323   -638.50781    291293.73     14.56532 
14927000    2178.2673   -653.04209    299615.89    14.672206 
14927500    1880.1537   -769.63614     296834.9    15.499087 
14928000    1949.0674   -703.24592    295067.53    14.998471 
14928500    1846.0288    -678.1187    293628.82    14.866275 
14929000    2034.4203   -641.53211     306237.1     14.77319 
14929500    1956.6698    -666.9509    299582.99    14.860163 
14930000    2119.1396   -682.73915    302237.88    14.947323 
14930500    2025.2729   -691.54473    299762.56    14.932559 
14931000    1887.5223   -727.51955    294139.82    15.149583 
14931500    1940.6915   -716.33274    296854.55    15.054964 
14932000    1870.4537   -674.94497    286126.99    14.816299 
14932500    1894.6312   -713.35327    296391.22    15.134974 
14933000    2192.1419   -682.88271    295677.89    14.887951 
14933500     2087.001   -704.62349    296243.36     14.88496 
14934000    2011.4626   -655.57587    308281.34    14.763767 
14934500    2088.9075   -684.34846    293609.23    14.825945 
14935000    2006.6132   -728.26488    301529.69    15.124872 
14935500    1836.9229   -748.00797    307928.41    15.400815 
14936000    2026.5892   -789.69164     307184.9    15.746412 
14936500    1966.3587   -774.31263    282754.67     15.90967 
14937000    1954.1273   -762.50474    296481.41    15.663179 
14937500    1988.5379   -755.16051    303963.41    15.502217 
14938000    2127.7363   -750.32985    307294.42    15.434417 
14938500     1933.948   -755.95834    305407.63    15.463674 
14939000    2022.0067   -766.36645    286798.27    15.598477 
14939500    2017.9868   -642.13236    304375.81    14.658521 
14940000    1972.2043   -613.16813    301699.54    14.503078 
14940500    2015.0211   -733.40736    299844.75     15.15486 
14941000    1976.5445    -759.1654     293082.3    15.255154 
14941500     1981.701   -757.28239    294399.99    15.214719 
14942000    2190.5177    -763.7529    292612.85    15.270408 
14942500    2166.6827   -757.56128    298641.09    15.191736 
14943000    2018.9405   -721.70281    296634.55    15.014382 
14943500    2083.8604   -793.20497     301442.5    15.469766 
14944000    2151.1755   -793.10566    297050.96    15.561371 
14944500    1832.3448   -790.61449    296059.02    15.564603 
14945000    1904.7117   -763.60034    296437.62    15.377637 
14945500    1964.4651    -642.8565    302751.44    14.642823 
14946000    2046.7815   -755.29193    285900.99    15.515973 
14946500    1975.0808   -746.20588    305378.62    15.476084 
14947000    2267.6694   -751.33374    300660.97    15.596752 
14947500     1991.488   -707.54658    299656.41    15.297341 
14948000    1989.0309   -690.71679    303368.24    15.187769 
14948500    2078.5239   -729.12147    311535.81    15.511351 
14949000    2121.0294   -733.36002    294170.76     15.21942 
14949500    1836.9214   -683.22208    295289.28    14.809744 
14950000     1923.046   -707.91965    289986.31    14.927464 
14950500    2065.6222   -686.54789    300500.06    14.921788 
14951000    1872.4269   -720.17852    298634.72    15.057645 
14951500    1995.9817   -761.45912    294864.56    15.521162 
14952000    2102.5735   -715.95141     301978.3    15.070445 
14952500    2102.5923   -662.92873    311015.86    14.725753 
14953000    1913.1862   -665.55928    304251.28    14.783316 
14953500    2113.9448   -660.63603    296686.66    14.813737 
14954000     2006.581   -701.98136     299730.3    15.289004 
14954500    2015.8729   -726.55067    298508.99    15.565083 
14955000    2126.0665   -749.40461    302782.91    15.763251 
14955500     1978.884    -648.7409    296662.83    15.167163 
14956000    2076.9545   -680.27876       301199     15.36726 
14956500    1936.2011     -683.783    300834.76    15.363322 
14957000    2081.5837   -760.24334    294873.76    15.879858 
14957500    1884.0269   -742.36181    298954.79    15.679881 
14958000    1955.3663   -706.03496    302808.15    15.180968 
14958500    1963.4239   -695.57595    302574.53    15.265626 
14959000    2083.9969    -695.4289    303904.37    15.253797 
14959500    2076.5377   -767.50474    278941.76    15.596315 
14960000    1883.0631    -727.3378    302084.78    15.153096 
14960500    2019.2268   -686.72208    307469.85    14.800007 
14961000    1994.3217   -646.43614    307727.87    14.672327 
14961500    1974.5488   -664.80409    305640.15    14.774208 
14962000    2089.0311   -686.64213    299161.54    14.842425 
14962500    2034.6648   -693.81447    305227.85    14.868397 
14963000    1916.1045   -671.82886    304994.94     14.74234 
14963500    1999.9971    -692.6841     302952.5    14.858076 
14964000    1906.2392   -671.96396    304997.76    14.774873 
14964500     2068.431   -719.96844     300190.9    15.129984 
14965000     2088.748   -720.50043    296688.26    14.936997 
14965500    2058.9447    -708.2922    293112.38    14.872666 
14966000    2014.1755   -681.04733    307174.67    14.773898 
14966500    1827.3367   -680.45023    295864.77    14.895361 
14967000     1866.556   -783.94023    277208.11    15.771888 
14967500     2015.327   -712.36543    301876.15     15.02276 
14968000    1918.3702   -772.29747    299402.64    15.492253 
14968500    1987.2422    -757.1246    297649.05    15.573618 
14969000    2219.8483   -707.53321    310807.51    15.094824 
14969500    1849.7122   -757.56079     297666.5    15.798605 
14970000    2068.7836   -765.99092    304265.15    15.796388 
14970500    1965.3913     -758.142    285338.05    15.844707 
14971000     2026.895   -763.89258    302198.11    15.807388 
14971500    1972.1509    -736.1084    305765.42    15.522083 
14972000    1847.6647   -731.88345    295802.94    15.729304 
14972500    1999.0732   -756.48095    297209.47    15.850482 
14973000    2019.1974   -768.23564    301245.19    15.901325 
14973500    2097.0426   -741.53604    306419.23    15.595167 
14974000    1991.5569   -778.45427    316942.17    15.795564 
14974500    1980.4419   -764.05906    305139.18    15.749643 
14975000    2021.0906   -758.12325    302870.31    15.710428 
14975500    2158.7844   -768.84884    291769.21    15.887921 
14976000    2038.8971   -761.07201    302117.47    15.811108 
14976500    2034.5229   -751.07645    301773.33    15.788272 
14977000    1954.1354   -755.72944    303369.64    15.713976 
14977500    1867.4077   -726.23217    295588.61    15.555059 
14978000    1834.1422   -691.87579    290281.72    15.358422 
14978500    1926.2176   -669.84142    306844.96    15.296714 
14979000    1816.5857   -680.26613    297280.47    15.333187 
14979500    2141.0974   -692.65786    303573.22    15.400663 
14980000    2128.7646   -692.83617    297978.16     15.37988 
14980500    2169.1011   -698.28974    299382.97    15.391553 
14981000    1888.4048   -702.28673    291769.71    15.536033 
14981500    2068.8461   -639.97116    299256.31    15.084841 
14982000    1970.3263   -735.58553    302967.21    15.823871 
14982500    2140.0705   -679.14155    299791.31    15.436392 
14983000    2246.5151   -681.63022    294348.54    15.467523 
14983500    2024.8749   -681.34178    299867.55    15.499667 
14984000    2026.7933   -749.79954    305895.21    16.012335 
14984500    2018.2326   -715.60876    295837.83     15.81119 
14985000    2056.7512   -687.42824    300841.88    15.514075 
14985500    2063.8346   -702.73282    301417.27    15.689062 
14986000    1893.9588   -747.25636    302077.91    15.943927 
14986500     1949.703   -700.31388    299960.58    15.736571 
14987000     2063.125   -631.88829    303510.89    15.092739 
14987500    1967.2019   -674.69195    300425.18    15.321149 
14988000    2158.8472   -734.63953    303445.58    15.803113 
14988500    1757.1597   -707.11037    296610.11    15.760162 
14989000    1881.4409   -717.21886    298566.59    15.763588 
14989500    1992.4726   -721.38686    296322.68    15.840001 
14990000    2227.2687   -675.75878    303817.76    15.327975 
14990500    2152.8143   -557.61428    292502.27    14.606368 
14991000    2128.6507   -559.25443    299136.77    14.584833 
14991500    1963.6878   -548.97441    298732.99    14.605114 
14992000    2042.3359   -614.34012    303149.73    15.048895 
14992500    1885.9699   -651.07012    304144.14    15.211271 
14993000    2083.3434   -647.00059     308588.4     15.19228 
14993500     2113.097   -608.77236    300308.57    14.971586 
14994000    2010.5339   -600.75555       306069    14.912711 
14994500     1955.636   -620.47402    293879.77    14.984719 
14995000    1770.6646   -605.40377    298110.16    14.992342 
14995500     2234.865   -648.54956    304848.76    15.079986 
14996000    1841.4011   -740.54985    303193.16    15.851362 
14996500    2048.2556    -748.9513    302334.07    15.827747 
14997000    2078.8338   -754.55692    302568.18    15.686727 
14997500    1885.4886   -762.76277    283713.95    15.879406 
14998000    2152.3556   -750.76124    306389.62    15.789632 
14998500    2047.9284    -750.1787    301298.76    15.527644 
14999000    2083.7786   -770.77153    299770.42    15.711763 
14999500    1880.0691   -724.32484     298428.9    15.587996 
15000000    2019.2852   -603.62159    306695.58    14.810507 
Loop time of 67390.7 on 6 procs for 15000000 steps with 256 atoms

Performance: 38.462 ns/day, 0.624 hours/ns, 222.583 timesteps/s
99.0% CPU use with 6 MPI tasks x no OpenMP threads

MPI task timing breakdown:
Section |  min time  |  avg time  |  max time  |%varavg| %total
---------------------------------------------------------------
Pair    | 3801.1     | 3941.1     | 4139.6     | 175.0 |  5.85
Neigh   | 109.49     | 111.26     | 113.16     |  11.8 |  0.17
Comm    | 888.26     | 1086.2     | 1233.6     | 341.2 |  1.61
Output  | 342.77     | 342.8      | 342.88     |   0.2 |  0.51
Modify  | 61844      | 61855      | 61869      |   3.1 | 91.79
Other   |            | 53.98      |            |       |  0.08

Nlocal:    42.6667 ave 46 max 39 min
Histogram: 1 1 0 0 0 2 0 0 1 1
Nghost:    1232.67 ave 1242 max 1218 min
Histogram: 1 0 1 0 0 0 1 1 0 2
Neighs:    3947.33 ave 4482 max 3397 min
Histogram: 1 0 0 1 1 1 0 1 0 1

Total # of neighbors = 23684
Ave neighs/atom = 92.5156
Neighbor list builds = 750038
Dangerous builds = 1

write_data	data.final.${p_id}
write_data	data.final.5
Total wall time: 18:43:16
