LAMMPS (8 Feb 2019)
Processor partition = 4
echo both

include         in.partitions
variable p_id world   0 1 2 3 4 5
include		in.temp
variable	temperature equal 2000.
variable	tempDamp equal 0.1 # approx 0.1 ps
include		in.pressure
variable	pressure equal 300000.
variable	pressureDamp equal 1.0
include 	in.seed
variable	seed world 74581 93734 128321 21934 495716 871038
units		metal
read_restart    Restart.lmp.${p_id}
read_restart    Restart.lmp.4
  restoring atom style atomic from restart
  orthogonal box = (0.341787 0.341787 0.341787) to (15.8422 15.8422 15.8422)
  2 by 1 by 3 MPI processor grid
  pair style eam/alloy stores no restart info
  256 atoms
include 	in.setup
variable	out_freq equal 500
variable	out_freq2 equal 500

neigh_modify    delay 10 every 1
include		in.al
### Argon Potential Parameters ###
pair_style 	eam/alloy
pair_coeff 	* * Al99.eam.alloy Al

timestep	0.002 # According to Frenkel and Smit is 0.001

thermo          ${out_freq}
thermo          500
thermo_style 	custom step temp pe press lx


restart 	${out_freq} Restart.lmp.${p_id} Restart2.lmp.${p_id}
restart 	500 Restart.lmp.${p_id} Restart2.lmp.${p_id}
restart 	500 Restart.lmp.4 Restart2.lmp.${p_id}
restart 	500 Restart.lmp.4 Restart2.lmp.4



timer 		timeout 23:50:00 every 1000
New timer settings: style=normal  mode=nosync  timeout=23:50:00

# NPT

include		in.dump
dump            myDump all atom ${out_freq2} dump.al.${p_id}
dump            myDump all atom 500 dump.al.${p_id}
dump            myDump all atom 500 dump.al.4
dump            myDcdDump all dcd ${out_freq2} out.${p_id}.dcd
dump            myDcdDump all dcd 500 out.${p_id}.dcd
dump            myDcdDump all dcd 500 out.4.dcd
dump_modify	myDump append yes
dump_modify     myDcdDump append yes



fix             1 all plumed plumedfile plumed.dat outfile plumed.out
fix             2 all nph iso ${pressure} ${pressure} ${pressureDamp}
fix             2 all nph iso 300000 ${pressure} ${pressureDamp}
fix             2 all nph iso 300000 300000 ${pressureDamp}
fix             2 all nph iso 300000 300000 1
Resetting global fix info from restart file:
  fix style: nph, fix ID: 2
fix             3 all temp/csvr ${temperature} ${temperature} ${tempDamp} ${seed}
fix             3 all temp/csvr 2000 ${temperature} ${tempDamp} ${seed}
fix             3 all temp/csvr 2000 2000 ${tempDamp} ${seed}
fix             3 all temp/csvr 2000 2000 0.1 ${seed}
fix             3 all temp/csvr 2000 2000 0.1 495716
fix             4 all momentum 10000 linear 1 1 1 angular

run             30000000 upto # 60 ns
All restart file global fix info was re-assigned
Neighbor list info ...
  update every 1 steps, delay 10 steps, check yes
  max neighbors/atom: 2000, page size: 100000
  master list distance cutoff = 8.28721
  ghost atom cutoff = 8.28721
  binsize = 4.1436, bins = 4 4 4
  1 neighbor lists, perpetual/occasional/extra = 1 0 0
  (1) pair eam/alloy, perpetual
      attributes: half, newton on
      pair build: half/bin/atomonly/newton
      stencil: half/bin/3d/newton
      bin: standard
Per MPI rank memory allocation (min/avg/max) = 4.002 | 4.066 | 4.377 Mbytes
Step Temp PotEng Press Lx 
14999500    2121.7033   -753.50348    301816.34    15.500425 
15000000    2233.8334   -768.17541    301582.85    15.565839 
15000500    1992.4663   -701.80805       300959    15.079126 
15001000    2072.7077   -780.74907     306627.1    15.831954 
15001500    2132.2562   -796.17035    298739.26    15.780966 
15002000    2021.4411   -787.44017    312927.43    15.737025 
15002500    2153.5894   -791.25889    306863.41    15.768326 
15003000    1974.3212   -791.97974    270935.56    15.835725 
15003500    1949.1542   -784.06769     285368.1    15.867648 
15004000     2146.743   -692.02903    310570.21    15.058587 
15004500    2005.8735    -793.5782    308170.41     15.82806 
15005000    1866.5865   -793.27015     295082.3    15.851382 
15005500    1996.2998   -760.31018    303722.24    15.523245 
15006000    1994.9974   -770.99039    298041.73     15.54403 
15006500    2195.4015   -725.93629    291105.52    15.279712 
15007000    2117.3498   -777.13668    317696.71    15.838076 
15007500    2036.4902   -751.50809    296385.91    15.487119 
15008000    2004.2452   -734.58871    294756.86    15.222106 
15008500    2212.1467    -694.7128    295258.37    14.912155 
15009000    1989.5939   -772.85656    299696.56    15.645083 
15009500    1938.7498   -749.04357    302241.61    15.324751 
15010000    2186.5805   -748.15664    305746.68    15.159149 
15010500    1897.2675   -749.10302    298374.57     15.20376 
15011000    1862.1787   -734.91775     299336.7    15.156102 
15011500    1890.2113   -719.12848    302945.16    15.078147 
15012000    1875.3535   -665.42619    297706.25    14.809446 
15012500    2002.0477    -687.1947    299612.93    14.864918 
15013000    1854.5214   -676.76043    307730.57    14.773626 
15013500    1887.1683   -746.53033    302663.65    15.433238 
15014000    2062.6111   -779.34018     303271.1    15.566044 
15014500    1982.1159   -745.36622    304971.43    15.426303 
15015000    1944.9148   -709.07025    293554.61    15.262706 
15015500    1920.7607   -742.15027    294159.16    15.218285 
15016000    1868.5523   -722.96967    286721.69    15.175021 
15016500    1979.0589   -683.35821    298735.54    14.815033 
15017000     1910.012   -723.73029    290824.51    15.154935 
15017500    1957.8743   -729.77107     305645.2    15.130581 
15018000    2095.7675   -764.06772    288604.48    15.221785 
15018500    1939.9913   -738.88973    308390.82    15.140152 
15019000     2048.733   -726.28691     298029.8    15.157217 
15019500     1921.082   -688.43909    295254.34     14.97294 
15020000    1837.6868   -679.96371    288522.36    14.925141 
15020500     1977.674   -656.04309    308059.98    14.744606 
15021000    2033.1601   -725.02979    302726.25    15.116005 
15021500    2022.5135   -746.09874    299560.94    15.196248 
15022000    2016.3647   -741.52845    300752.74    15.232572 
15022500    1920.8325   -751.55034     301023.5    15.130128 
15023000    1837.8422   -729.47302    298809.39    15.055665 
15023500    1880.6552   -716.70601    297578.89    15.047726 
15024000    2084.6214   -678.94665    298621.22    14.773757 
15024500    1900.9216   -751.68756    295186.06    15.227189 
15025000    1957.6442   -754.67657    291850.63    15.248796 
15025500    1837.1193    -741.4209    295984.73    15.157876 
15026000    2125.5966   -754.08954    301267.24    15.169141 
15026500     1862.988   -747.35603    298385.54    15.197572 
15027000    2053.0924   -757.35485    298202.41    15.231099 
15027500     1938.829    -756.9396    301014.55    15.127928 
15028000    2005.4754   -754.75209    300779.72    15.187276 
15028500    2095.8255    -752.6273     298770.4    15.204046 
15029000    1995.1739   -746.93555    301216.39    15.185739 
15029500    2068.5178   -746.49527    308913.55    15.114394 
15030000    2082.7482    -765.3747    297634.99     15.33878 
15030500    1908.4802   -754.03562    297681.77    15.195517 
15031000    1983.5868    -734.4072    304586.32     14.98284 
15031500    1824.2184   -742.03972    301556.26    15.168163 
15032000     2014.163   -780.00558    301041.49      15.6136 
15032500    2058.6796   -795.62778    289221.77    15.833197 
15033000    1914.2489   -735.21094    298178.41    15.253187 
15033500    2125.4679   -680.72769    302546.53     14.84173 
15034000    2001.4569   -656.05692    311278.41    14.745784 
15034500    1857.7838   -725.61244    299187.26    15.168681 
15035000    1934.7554   -683.80477    302234.24    15.151088 
15035500     2021.803   -685.84956    303605.12    15.122707 
15036000    2208.5995    -755.9955    303104.07    15.627231 
15036500    1972.6288   -742.29185    300132.51    15.725703 
15037000    2085.0511   -753.00663    294618.69    15.876203 
15037500    2089.7184   -755.60082    304708.25    15.802087 
15038000    2138.9467   -747.49754    302792.83     15.53476 
15038500    2023.6328   -750.72976    305820.63    15.733144 
15039000    2071.4909   -752.24518    291426.03    15.807081 
15039500    1949.0269   -772.40106    310164.25    15.828086 
15040000    1889.1896   -767.92942    293374.49    15.899314 
15040500    1945.4156   -774.19257    301447.18    15.853979 
15041000    1924.6009   -758.88514    285099.14     15.94148 
15041500    1939.0863   -762.25345    300464.59    15.883934 
15042000    2015.2663   -757.60692    294351.42    15.473298 
15042500    1977.8197   -748.25414    301977.35    15.465458 
15043000    1995.4396   -749.28957    302325.87    15.541947 
15043500    2140.5778   -761.14022    286784.26     15.56624 
15044000    1940.6549   -754.13285     295463.8    15.474452 
15044500    1958.2562   -759.25254     292486.6    15.517667 
15045000    2133.1237   -747.54551    306831.31    15.377676 
15045500    1943.1099   -748.66879    298789.52    15.481137 
15046000     1867.881   -736.76388    303399.61    15.357035 
15046500    1957.4561   -750.10252    284595.15    15.671217 
15047000    2000.3283   -698.93254     305677.1     15.07094 
15047500     1871.456   -743.94469    309651.48    15.365361 
15048000     1960.186   -751.54312    295529.78    15.511294 
15048500    1951.6853   -726.27694    304095.35     15.47343 
15049000    1944.1139   -725.74493    288006.09    15.522894 
15049500    1994.2067   -632.63284    304422.34     14.94509 
15050000    1974.3268   -657.09885    299499.78    15.197736 
15050500    2074.5847   -678.21582    305740.37    15.215642 
15051000    1976.0483   -690.97208    298164.15    15.382074 
15051500    2023.4126   -637.07788    304973.96    14.994714 
15052000    2016.4794   -708.60177    295625.57    15.563736 
15052500    1978.4706   -660.14885    298136.53     15.20872 
15053000    2037.7828   -652.02736    295824.72    14.946559 
15053500    2063.2388    -631.6612    301202.43    14.965496 
15054000    2120.8129   -645.12979    295001.41    15.041891 
15054500    2063.0471   -644.71133    293909.01    15.056616 
15055000    1956.8868   -649.09971     301596.9    15.058903 
15055500    1956.2343   -642.99949    298166.62    15.031945 
15056000    2136.7786   -648.31746    298015.54     15.04788 
15056500    2022.7209   -660.34484    298811.37    15.165146 
15057000     2195.622   -689.09536    303067.56    15.351918 
15057500    1918.2512   -668.74961    302099.79    15.282438 
15058000    1995.7267   -645.69282    302931.26    14.955506 
15058500    1940.8205   -609.26484    303255.64    14.809576 
15059000    1971.6916   -645.46387    298495.47    15.044798 
15059500    1911.8913   -685.44883    296328.98    15.348772 
15060000    2220.7972   -683.32617    298735.87    15.332632 
15060500    2098.0159   -701.04568    298861.68    15.476428 
15061000    2111.5564   -738.87471    300256.44     15.89676 
15061500     1901.456   -673.24409     297834.8     15.38169 
15062000     2028.661   -711.10009    301648.31    15.722849 
15062500    1929.6053   -683.67163    296329.05    15.546116 
15063000    1997.6908   -608.68864    301257.05    14.866414 
15063500    1949.6441   -608.27882    306031.36    14.942992 
15064000    1924.2613   -672.06902    300837.79    15.355464 
15064500    1956.0896   -671.81435    303629.69    15.438017 
15065000    2138.8389   -665.02263    301192.34    15.271727 
15065500    1982.2122   -686.05049    297949.32    15.538681 
15066000    2080.8302   -668.99326    299413.53    15.439801 
15066500    1972.4702   -717.33405    303153.99    15.766502 
15067000    2177.7385   -607.21566    300560.93    14.962553 
15067500    2105.0621    -613.0365    304369.23    14.927008 
15068000    1913.8404   -619.90787    289587.11    14.804363 
15068500    1970.1741   -579.17937    299253.08    14.570843 
15069000     2012.117   -565.79001    293825.35    14.607394 
15069500      2003.69   -717.10118    296439.08    15.520368 
15070000    2157.4923   -681.03266    304178.92    15.345934 
15070500    2025.6765   -699.16421    295025.92    15.578359 
15071000    2033.6524   -750.45544    293870.92    16.041922 
15071500    2134.8925   -683.41355    301059.62    15.432026 
15072000     1927.102   -640.90184    297564.28     15.10621 
15072500    1919.5526   -696.65335    300056.48    15.385216 
15073000    1896.7064   -663.10531    302670.17    15.303792 
15073500    2029.0659   -639.22055    302904.51    15.266624 
15074000     2113.838   -716.55487    301283.52    15.738042 
15074500    1981.4585   -720.28107    299442.83    15.832472 
15075000    2138.2266     -727.791     300922.9    15.603417 
15075500    1929.8198   -750.91102     299850.5    15.772848 
15076000    1988.9344   -756.81263    301149.03    15.848983 
15076500    1925.2167   -753.35502    299927.96    15.837584 
15077000    2004.9367   -721.04412     300495.7    15.227621 
15077500    2159.7806   -667.74882    301581.68    14.889969 
15078000    2162.7869   -692.77371    305058.25    14.971855 
15078500    1878.8904   -654.97114    298636.83    14.780324 
15079000     1985.547   -716.06611    303311.59    15.228619 
15079500    1985.4936   -738.65378     297280.9    15.401704 
15080000    2034.3523    -735.8756    302612.07    15.510668 
15080500    1989.1136   -740.57242    301701.18    15.767475 
15081000     2010.699   -750.83837    303746.31    15.991329 
15081500    1931.9507   -698.75666    299009.55    15.607338 
15082000    1872.9066    -677.5991    296478.53    15.436568 
15082500     2011.229   -690.43073    301402.42    15.555162 
15083000    1840.2131   -709.53339    301667.18    15.762878 
15083500    2015.1358   -704.62444    303599.66    15.756414 
15084000    2228.2428   -707.69819    301963.67    15.792797 
15084500    2046.1211   -685.82499    302738.87    15.579519 
15085000    2071.0053   -665.23223    295654.74    15.294489 
15085500    1875.4624   -690.03175    298124.64    15.580134 
15086000    1787.2986   -724.20002    295337.39    15.873498 
15086500    2037.6277   -684.72298    301239.48    15.415247 
15087000    1844.0068   -672.42292    295544.35    15.295675 
15087500    1937.3624   -720.97881    301811.44    15.658878 
15088000    2157.6481   -755.53162    304184.75    15.722707 
15088500    1931.2511   -765.60489    302774.12    15.679757 
15089000    2036.7686   -763.44604    296958.55    15.872169 
15089500    2035.2654   -761.80906    297128.05    15.618483 
15090000    1943.2545   -709.19301     299833.7    15.194097 
15090500    1944.1079     -645.378    301062.74    14.820827 
15091000     1976.067   -661.16277    290524.41    14.890513 
15091500     2077.539   -683.29726    297349.68    14.914687 
15092000    2003.7713   -640.35034    295646.31    14.742675 
15092500    2032.0194   -607.54928    300848.47    14.658433 
15093000    1932.7681   -669.86047     294223.1    14.969173 
15093500    1998.5534   -648.42334    303052.39    14.774982 
15094000    1902.0895   -771.36591    292473.29    15.795699 
15094500    2014.8648    -765.3765    302407.91    15.649456 
15095000    1807.3768   -732.07015     302959.3    15.383847 
15095500    1889.1021    -755.7827    297087.38    15.598957 
15096000    1944.0774   -753.91102    298839.12    15.613042 
15096500    2116.0898   -728.44999    306528.39    15.280593 
15097000    2008.3082   -714.43233    307247.47    15.307105 
15097500    2162.1172    -725.3239    304528.04    15.388318 
15098000    1907.5151   -773.56745    287036.91    15.895564 
15098500     2151.599   -640.76109    302520.91    14.777423 
15099000    2006.7398   -660.45136    302335.27    14.860375 
15099500    2124.7771   -718.12551    301941.09     15.25115 
15100000     2042.902   -779.47223       292518    15.813113 
15100500     2007.759   -747.95756     302334.4    15.493932 
15101000    1952.9943    -710.2104    293985.07    15.124263 
15101500    1925.3524   -678.18353    300204.55    14.936854 
15102000    1884.3121   -706.74219    295297.67    15.172577 
15102500    2106.8833   -729.10038    301302.97    15.243303 
15103000    2074.8465   -746.42249    301645.11    15.406351 
15103500    2150.6384   -696.74642    305022.83    15.004961 
15104000    1789.5567   -677.01533    299188.48    14.951956 
15104500    1921.6311   -694.03268    297301.62    14.999791 
15105000    2090.1634   -673.01924    302405.28    14.942044 
15105500    2060.7212   -688.19918    297870.36    15.098311 
15106000    1928.5071   -766.04436    294257.86    15.762022 
15106500    2126.4904   -765.41959    296837.81    15.771047 
15107000    2028.2127   -723.43805    304367.71    15.312707 
15107500    2145.9116    -767.9694    299048.55    15.757322 
15108000    2107.5076   -618.16959    303587.92    14.727136 
15108500    1974.4673   -609.05485    301608.06    14.668792 
15109000    2042.3204   -624.36801    299776.86     14.70623 
15109500    1867.4623   -625.40215     299279.4    14.698689 
15110000    1882.5979   -599.69162    305503.31    14.588702 
15110500    1962.2089   -709.84625    301929.55    15.265694 
15111000     2032.766   -733.20258    301054.62    15.438923 
15111500     1941.933   -752.60903    299729.96    15.709828 
15112000    1945.9528   -739.11188    305938.61    15.498162 
15112500    1782.8426   -752.21439    298585.36    15.467118 
15113000    2187.9843   -748.20454    299349.41    15.540208 
15113500    2144.3022   -748.65342    306551.34    15.450001 
15114000    1927.9861   -755.52833     301705.8    15.586499 
15114500     1907.137   -757.37974    299932.18    15.666877 
15115000    2124.0278   -729.33718    302374.45    15.315595 
15115500    1944.1373   -724.49656    292167.05    15.302225 
15116000    1938.3931   -638.28666    297693.95    14.715529 
15116500    2159.6327   -702.10301    298223.57    15.102171 
15117000    2007.9103   -653.46436    304259.71    14.803086 
15117500    1936.6447   -761.59093    294946.02    15.538503 
15118000    1925.2263   -732.66418    302783.47     15.33236 
15118500    2014.0594   -760.29349     298483.4    15.629264 
15119000    2095.1414   -748.77745    305046.53    15.430731 
15119500    1926.5435   -760.49946     298839.7    15.476218 
15120000    2104.0654     -751.153    299554.49    15.444926 
15120500    1989.9025   -771.96715    297309.32    15.724336 
15121000    1829.4223   -760.92609    302860.33     15.69386 
15121500    2036.1938   -744.06273    302391.69    15.555337 
15122000    2203.8817   -754.03498    296759.92    15.970444 
15122500    1929.9792   -725.73983    302890.47    15.762025 
15123000    2026.3343   -718.48082    303961.07    15.693186 
15123500     2102.527   -670.28382    299995.11     15.30667 
15124000    1990.1347   -709.38575    298626.77    15.591064 
15124500    2040.1947   -742.00347     295752.3    16.032732 
15125000    1971.3279   -617.69077    294300.09    15.025348 
15125500    2116.8014   -699.32197    305100.24    15.611242 
15126000    2159.3124   -681.46154    300573.48    15.424145 
15126500    1913.0272   -688.55333    301188.34    15.322032 
15127000    1921.7438   -584.80821     311649.9    14.845244 
15127500    2200.6085   -668.94123    301156.31    15.503215 
15128000    1864.3593    -726.9639    292824.45    15.854773 
15128500    2150.7473   -726.50519    300847.59    15.795923 
15129000    1935.7675   -622.13746    306523.27    14.955885 
15129500    2028.7901   -630.01413    299619.42    14.924584 
15130000    1958.8519   -629.84298    302729.95    15.063008 
15130500    1838.7387   -726.66693    301750.99    15.625179 
15131000    2019.1637   -690.82849     304180.9    15.300782 
15131500    1683.9551   -698.04234    291395.07     15.51825 
15132000    1919.6115   -667.79533    298022.19    15.330701 
15132500    2044.8431   -632.51786    300463.11     14.92609 
15133000    1904.7219   -624.10643    297882.87    14.956418 
15133500    1933.4714   -624.02794    302187.66     14.92414 
15134000    1947.5388    -633.1552    296061.67    15.030568 
15134500    2060.8299   -626.06441    303878.74     14.87684 
15135000    2018.3343   -676.38408    300851.69    15.353914 
15135500    2144.8378   -695.06005    300323.16    15.315759 
15136000    2034.7687   -724.30833     300180.5    15.239123 
15136500    2106.6089   -739.41045    297592.99    15.232245 
15137000    1890.3291   -707.68429    297938.19    15.059664 
15137500    2177.0898   -750.75503    302437.97    15.183453 
15138000    2014.2398   -730.00141    299345.41    15.092174 
15138500    2093.7462   -720.31008    299192.03    15.007491 
15139000    1769.8651    -768.5149    293707.56    15.473232 
15139500    1954.1691   -685.60948    301152.84    14.967023 
15140000    1992.6117   -676.35603    298065.87     14.82917 
15140500     2039.066   -710.46682    305553.88    15.137682 
15141000    1996.0372   -695.39628    295685.92    14.956594 
15141500    2022.2835     -728.723    294386.98    15.224247 
15142000    2171.1668   -704.29217       303621    15.020209 
15142500    1734.7763   -681.62029    295751.37     14.85175 
15143000    1916.3243   -655.78035     312410.1    14.695396 
15143500    1878.4859   -714.20896    297019.15    15.190106 
15144000    2023.5302   -710.01445    299060.59    15.207989 
15144500    1991.2598   -723.70827    295097.95    15.249661 
15145000    2203.3704   -732.85402    299459.24    15.159234 
15145500    1886.7716   -712.17326    297046.35    15.001381 
15146000    1954.9045    -699.6361     297769.2    14.882079 
15146500    1940.9435   -747.55087    300398.22    15.269957 
15147000    1978.5906   -765.45129       293755    15.542026 
15147500     2040.412   -686.81154    315938.02    14.754604 
15148000    1998.6758   -765.19757    291787.21    15.257685 
15148500    1954.7721   -739.60605    301279.03    15.181428 
15149000    2079.1229   -751.41835    298502.32    15.139024 
15149500    1969.5629   -734.14884    300370.85    15.080316 
15150000    1829.8174   -715.89773    294297.31    15.018474 
15150500    1940.2238   -663.78015    296932.34    14.812562 
15151000    2127.2186   -673.41335    309928.01     14.71697 
15151500    1961.7242   -765.78691    295294.48    15.394198 
15152000    2189.9771   -778.62006    303303.54    15.494363 
15152500    2050.3327   -695.69384    303103.81    14.983886 
15153000    1962.3785   -710.31275       299182    15.063304 
15153500    2038.9512   -738.16129    297560.76    15.181327 
15154000    2046.8663   -734.42187    297713.46     15.17987 
15154500     2043.471   -700.13729    302494.65    14.911901 
15155000    1866.3784   -699.94508    305806.26    14.856922 
15155500    2051.4891   -696.63528    317964.09    14.858258 
15156000    2058.6415    -719.5547    311233.11    15.057921 
15156500    2090.3108    -712.9903    301912.85    14.960597 
15157000    2123.4063   -717.54466    286239.99    15.049685 
15157500    2034.6173    -696.2164    310976.42    14.893491 
15158000    2135.3576   -715.47782    297014.76    15.026007 
15158500      2032.98   -723.63376    301713.43     15.10615 
15159000    1945.6109   -625.80659    298967.38    14.750938 
15159500    1967.3676   -605.17803    289798.54    14.604228 
15160000    1964.8016   -588.05215    309463.58    14.616078 
15160500    1938.0349   -607.33562    280685.99    14.657062 
15161000     1942.299    -602.2766    304563.79    14.521446 
15161500    2101.2874   -619.50008    284244.19    14.549324 
15162000     1828.965   -624.36023    282832.19    14.581061 
15162500    1900.9874   -601.38637    301291.53    14.529691 
15163000    2117.0908   -607.99883    300588.07    14.521619 
15163500    1847.2655   -612.44963    300720.45    14.511279 
15164000    2069.1589   -600.11204    306635.89    14.540456 
15164500    1903.5181   -617.38855    295336.04    14.504044 
15165000     2020.106   -739.08589    300362.68    15.289151 
15165500    1987.6543   -743.27628    307797.83    15.119048 
15166000    2141.0976    -722.9632    300854.77    15.152344 
15166500    2167.7898   -734.20621    296199.58    15.226524 
15167000    1974.3057   -670.74472    307160.21    14.761344 
15167500    2019.9331    -656.1845    307944.36    14.710165 
15168000    1980.8379    -718.1292    301707.49    15.117078 
15168500    2081.5591   -691.16399    299939.83    14.920774 
15169000     2035.144   -683.56674     299826.3    15.031285 
15169500    1798.3215   -749.38404    300548.64    15.380973 
15170000    2049.8551   -731.36845    300337.07    15.188744 
15170500    2054.6115    -710.8161    307573.49      15.0081 
15171000    1875.8603   -669.98316    296944.28    14.784106 
15171500    2009.5244   -772.16868    302981.86    15.417941 
15172000    1952.7408   -695.99661    301661.83    14.819054 
15172500    2116.2721   -679.61845    306220.68    14.776389 
15173000    1878.5089    -695.5917     301940.3    15.036443 
15173500     1931.755   -706.50636    301270.87    15.103369 
15174000    2211.8241    -789.9753    293299.65    15.819669 
15174500    1856.7987   -763.08179    287019.14    15.705302 
15175000    2335.9527   -696.78166    303816.42    15.108916 
15175500    2085.3687   -692.62393    306279.12    15.220417 
15176000    1864.4095   -759.71956    300899.62    15.586394 
15176500    1847.9204    -691.6268    303016.85    15.016859 
15177000    1846.3642   -759.54574    295588.43    15.476552 
15177500    2037.3468   -712.80324    299312.38    15.164073 
15178000     1908.049   -729.60498    301048.85    15.275357 
15178500    2187.6572    -754.2355    308481.44    15.416426 
15179000    1965.4086   -761.79118    286223.52    15.539244 
15179500    1858.4686   -772.39892    299970.38    15.612631 
15180000    1936.3692   -794.20468    289893.72    15.606086 
15180500      2012.62   -766.06135    298241.48     15.34306 
15181000    1872.9068    -744.5446    303791.86     15.12744 
15181500    1976.6775   -753.43691    296747.18    15.260725 
15182000    2044.9786   -738.65309    304593.88    15.098344 
15182500    1912.5295   -740.62439     299603.3    15.137535 
15183000    1926.8816   -716.19997    301923.81    15.069696 
15183500    1830.9455   -705.93077    297975.44    15.151741 
15184000    2041.5778   -666.50695    294893.27    14.860588 
15184500    1949.7872    -649.4227    311286.77    14.753319 
15185000    1957.9276   -667.52325    300249.58    14.815222 
15185500    1934.8077   -707.17865    289800.71    14.870169 
15186000    2074.9044   -685.08944     311027.8    14.773942 
15186500    1938.3479   -696.76945    301535.28    14.839113 
15187000    1977.7506   -704.92823    297583.56    14.813346 
15187500     1948.857   -699.24687    299518.48    14.868942 
15188000    2068.4859   -653.61165    309489.62    14.759028 
15188500    2063.8579   -663.81422    299366.52    14.804919 
15189000    1986.0293   -688.03901     301120.8    14.957117 
15189500    1939.1231   -708.10087    292845.37    15.242605 
15190000    2055.4902   -665.98589    296474.22     14.90292 
15190500    2050.0932   -708.52348     303917.3    15.116688 
15191000     1971.172   -712.21562    300346.17    15.129745 
15191500    2000.2838   -769.18269    296106.78    15.555658 
15192000    1992.6241    -666.6293    307948.94    14.764321 
15192500     2067.807   -758.20327    301481.38    15.518675 
15193000    2098.5805   -758.11962    298518.81    15.365019 
15193500    1875.4901    -751.6411    299505.62    15.347552 
15194000    2059.1353   -765.90816       293017    15.475808 
15194500    2253.0515   -774.63411    305765.57    15.548053 
15195000    2060.0698   -748.28823    304750.27    15.326802 
15195500    2002.3057   -747.08177    304546.18    15.372548 
15196000    1883.5984   -734.78603    291604.37    15.287928 
15196500    2012.3266   -675.80309    299076.84    14.813214 
15197000    2096.4419   -668.62804    295643.87    14.788893 
15197500    2266.8714   -670.63947     306891.2    14.794893 
15198000    1899.5044   -667.34125    300934.13     14.78564 
15198500    2148.4737   -683.74012    297174.72    14.778541 
15199000    1897.6975   -714.34124    301510.05    15.137554 
15199500    2246.6096   -752.18968     304998.7    15.456946 
15200000    1992.5746   -745.59721    295276.49    15.464304 
15200500    1913.4185   -754.26857    303305.77     15.45816 
15201000    2074.8529   -738.07095    298587.28    15.157394 
15201500    1981.3982   -612.63527    289810.54    14.529847 
15202000     2051.958   -606.01105    291946.79    14.543958 
15202500    1985.2338   -600.07644    313453.75    14.527339 
15203000    2071.4208   -619.89278    293381.94      14.5846 
15203500    2027.3204   -669.68526     299841.5    14.833317 
15204000    1815.6114   -762.17042    294613.83     15.47877 
15204500    1983.9636   -665.60311    297734.86    14.808104 
15205000    1991.4143   -674.57138    304608.98    14.813366 
15205500    1993.8816   -647.84832    309513.33    14.689819 
15206000    1883.8952   -661.05346    295713.92    14.835143 
15206500    2000.1193   -670.71758    301643.52    14.856057 
15207000    1969.3415    -660.8726    306258.53    14.794648 
15207500    2094.3796   -643.85217    301227.98    14.639065 
15208000    2053.9518   -697.54933    306140.65     14.83516 
15208500    2051.8077   -681.61899    289263.85    14.844646 
15209000    1850.8497   -683.14587    302579.73    14.786578 
15209500    1926.2283   -678.30617    297864.45    14.804647 
15210000    1954.8625   -706.82209    303337.35    14.982751 
15210500    2056.5452   -736.02132    302020.37    15.466768 
15211000    1930.3186   -788.89398     298151.5    15.734622 
15211500    2026.9795   -804.95815    296623.42    15.853464 
15212000    2037.0104   -802.13622    298689.94    15.830038 
15212500    2047.2041   -672.07324    301938.43    14.787138 
15213000    1998.3794   -674.68586    298179.76    14.861556 
15213500    2060.5899   -725.66668    303134.32    15.107603 
15214000    1884.9062    -745.8381    297637.07    15.327439 
15214500    1855.6479   -705.21512    305539.78    15.013835 
15215000    1892.8859   -707.78325    297669.01    15.044631 
15215500    1979.2722   -714.16311    302689.93    15.026032 
15216000    2005.6454   -709.06055    298069.01    15.200318 
15216500    1994.7701   -702.74265    299637.85     15.33014 
15217000    2030.1506   -697.80825    306763.28    15.165319 
15217500    1906.4339   -687.06801       299389    15.304399 
15218000    2024.4135   -654.71199    299543.13       15.137 
15218500     1908.314   -611.75687    310569.14    14.904554 
15219000    1933.3205   -663.59261    297468.82    15.248842 
15219500    2094.7812   -740.47552    297279.58    15.844965 
15220000    1995.0638   -624.66853    305991.49    14.886257 
15220500    1949.5733   -624.14517    310363.68    14.792678 
15221000    1936.1471   -654.14721     300185.6    15.087837 
15221500    2103.7488   -653.27882    292130.99    15.025861 
15222000    2136.8639   -672.85229    301169.47     15.20269 
15222500    1892.3412   -731.64252    298644.43    15.805965 
15223000    1890.1164   -675.37737    305389.76    15.383689 
15223500    2008.6875   -710.52829    295071.63    15.627069 
15224000     2005.648   -606.24274    305498.92    14.893341 
15224500    1991.6962    -717.8409    298628.21    15.601621 
15225000    1983.3636   -683.62036       297043     15.40289 
15225500    2013.9393   -694.40049    301867.54    15.347964 
15226000    2096.8248   -698.62305    296949.31     15.45787 
15226500    1999.4887   -704.42151    294773.05    15.456307 
15227000    1901.4476   -635.46488    299147.06    14.981908 
15227500    1942.6054   -727.12454    284703.15    15.681179 
15228000     1843.504   -688.78635    297637.41    15.368593 
15228500    2083.3457   -683.75322    295140.12    15.417693 
15229000    2001.1688   -651.14444    298840.56    15.187756 
15229500    2050.8795   -632.69319     302134.4     14.98034 
15230000     1906.223   -643.96016    291553.45    14.964431 
15230500    2131.9082   -681.84357    301517.44    15.333886 
15231000    2020.1122   -750.06641    302475.39    15.833071 
15231500    2120.9778   -759.97807    302976.89    15.768369 
15232000    1987.6353   -766.72583    299145.26    15.854339 
15232500    2057.7297   -760.96747    305453.93    15.770575 
15233000    2062.8172   -750.94279    300768.97    15.808765 
15233500    1938.3213   -757.81751    303490.68    15.810466 
15234000    1901.7898   -756.55997    306887.85    15.715246 
15234500    1970.6711   -735.61473    307539.57    15.426613 
15235000    2079.3112   -746.88864    296852.88    15.556786 
15235500    2064.6415   -760.20857    298123.63    15.525539 
15236000    1929.4828   -755.67217    298151.13     15.62447 
15236500    2069.1154   -734.45705    301866.54    15.284479 
15237000    1933.5133   -754.98917    297161.81    15.672523 
15237500    2061.6829   -739.12623    303109.11     15.66306 
15238000    1989.2631   -722.11298    297327.88    15.611811 
15238500    2163.7854   -676.58136    304939.44    15.320615 
15239000     1917.183   -671.89184    303328.16    15.321108 
15239500    1791.7076   -698.12225    297969.26    15.389488 
15240000    2016.9564   -715.39783    297986.12    15.352795 
15240500    1907.5069   -721.88617    299865.29     15.31515 
15241000    1897.8972   -716.59572    294286.45    15.297381 
15241500    2083.7665   -641.95598    309268.65    14.720933 
15242000     1898.332   -748.64034    297404.88    15.258896 
15242500    1850.5039   -749.87482    297588.66    15.186457 
15243000    2040.0915   -755.97885    297189.53    15.252693 
15243500    1938.0764   -711.21025    302624.59    14.964095 
15244000    1946.9392   -624.24457    287716.94    14.523136 
15244500    2151.2586    -641.6852    301403.47    14.591252 
15245000    2055.3782   -611.03512    290396.07    14.577214 
15245500    1852.7264    -599.3393    304957.02    14.552899 
15246000    2074.6752    -606.0799    299973.97    14.550117 
15246500    1804.2256   -599.70494    329323.91    14.516897 
15247000    1875.7236    -626.0011    290960.13    14.575906 
15247500    1868.3429   -712.64246    299050.58    15.095349 
15248000    1931.6837   -711.61131    294856.02    15.150678 
15248500    1908.6473   -691.32645    299667.98    14.937243 
15249000    2087.6998   -766.97812    302533.36    15.546344 
15249500    1972.6098   -787.84379    301977.98    15.667123 
15250000     1923.703   -792.47871     303613.6    15.741872 
15250500     2006.696   -783.33863    303681.42    15.613248 
15251000    1925.3431   -773.60541    303225.54    15.531753 
15251500    2051.2262    -801.0784    308050.09     15.83037 
15252000      2238.98   -788.34413    312171.71     15.40725 
15252500    1876.6467    -792.7013     295441.5    15.756602 
15253000    2156.6656   -774.71659    304645.98    15.447735 
15253500    2024.5733   -751.39768    299376.15    15.276569 
15254000     1964.491   -739.77483    297396.65    15.199178 
15254500    2107.5915   -733.15713     299777.4    15.279148 
15255000    2042.2878   -788.67362     278468.8    15.855257 
15255500    1989.7719   -788.53434    294726.35    15.756635 
15256000    1762.5952    -793.8895    285486.44    15.841866 
15256500    1843.8014   -781.74596    296723.69    15.746477 
15257000    1969.6891   -792.82692    281831.47    15.815844 
15257500    2013.0562   -795.14235    304930.48    15.759839 
15258000     2019.343   -781.49115    283853.41    15.662118 
15258500     1891.879   -712.67101    294509.39      15.1064 
15259000    1979.6304    -611.3461    323309.49    14.505217 
15259500    1959.7074   -677.45102    298706.66    14.820117 
15260000    2124.1488   -672.91509    295639.16    14.836342 
15260500     2045.573   -681.89436    297796.55    14.849438 
15261000    2119.0691   -669.16322    303856.08    14.777986 
15261500    2069.4002    -688.2507    290029.35    14.850777 
15262000    1885.5114    -718.3121    291734.96     15.12261 
15262500    2118.8505   -662.75362    298882.91    14.827751 
15263000    1956.6261    -673.3684    293220.52    14.860062 
15263500    1962.5581   -660.00178    307858.62    14.779239 
15264000    1959.9947   -750.13393     303706.2    15.364753 
15264500    1993.2617    -760.2077    300294.62    15.435659 
15265000    1943.9489   -790.54576    286783.37    15.794553 
15265500    2100.5009   -707.14801    304746.35    15.048923 
15266000    2114.1003   -723.44668    297088.19    15.168643 
15266500    1988.7434   -713.37075    296447.51    15.108707 
15267000    2146.8819   -778.45382    297127.19    15.687993 
15267500    1992.6019    -782.6741     297303.6    15.679966 
15268000    1938.2179   -790.78416    296141.31    15.612855 
15268500    1905.6863   -761.39036    291482.79    15.258502 
15269000    2014.1779   -764.35508    291150.07    15.316963 
15269500    1871.3439   -769.07584     288867.5    15.245054 
15270000    2019.1514    -751.4196    304387.21    15.129114 
15270500    2067.5396   -753.57124    302832.49    15.132817 
15271000    1883.9856   -751.54018    295990.01    15.172426 
15271500    1979.2692   -617.06438    309969.26    14.482787 
15272000    1923.2495   -654.29726    314981.45    14.717408 
15272500    1765.0078   -710.77867    297557.73    15.112391 
15273000     1871.215   -702.76122    300118.09    15.230797 
15273500    2184.8193   -712.51797    301235.78    15.159188 
15274000    2193.8956   -723.75009     299355.7    15.179242 
15274500    2047.4591   -715.56732    294174.95    15.150729 
15275000    2137.0539   -640.35541    306042.29     14.67922 
15275500    2022.7362    -760.9712    297436.11    15.509406 
15276000    1882.1991   -767.80387    298719.21    15.577069 
15276500    1789.3381    -767.7205    295398.31    15.559295 
15277000    1974.5967   -788.69027    306207.07    15.719521 
15277500    2073.4817   -780.09679    305339.08    15.637391 
15278000    2071.4748    -720.6341    301085.84    15.013595 
15278500     1998.992   -699.39905    298096.72    14.926104 
15279000    1941.8579     -759.615    294468.38    15.340853 
15279500    2055.1861   -672.90062    311127.02    14.790805 
15280000     1924.599   -692.24022    294675.35    14.872982 
15280500    1982.6971   -734.38774     295921.3    15.216443 
15281000    1952.4665   -714.91852     299576.1    15.103419 
15281500    1884.7439   -715.01666    301089.04    15.174451 
15282000    2001.4296     -655.946     307976.7     14.72696 
15282500     2076.075   -715.93832    305091.36    15.039051 
15283000    2009.8089   -661.75536    299430.11     14.69184 
15283500    2272.4321   -630.15695    309465.83    14.545337 
15284000    1925.1823   -704.15804    291714.91    14.910303 
15284500    2091.1159   -685.19454    299995.32    14.879978 
15285000       1823.9   -678.41612     298417.2    14.845138 
15285500    1909.7923   -739.45136    299741.55    15.166501 
15286000     2009.773   -722.60878    301895.42    15.067299 
15286500    1984.6306   -677.94483    299485.61    14.883465 
15287000    2154.0062   -688.66085    298177.39    14.869788 
15287500    2019.0752   -681.91662    304821.53    14.749201 
15288000    2057.8469   -671.07814    304351.67    14.755039 
15288500    1985.8991    -759.2174    300378.98     15.40351 
15289000    2049.4444   -720.72794    300570.46    15.076174 
15289500    1967.2054     -701.889    298149.86    14.849545 
15290000    2021.5621   -702.53471    296830.45    14.831338 
15290500    1931.2275   -711.54716     291074.3    14.869472 
15291000    2065.3293   -764.31141    291480.18     15.28307 
15291500     1994.301    -761.7814    296008.79    15.424812 
15292000    2106.9944   -707.85672     305404.5    15.106256 
15292500    1913.8584   -722.22636     290438.1    15.257305 
15293000    1974.0447   -654.26635    302633.76    14.845822 
15293500    2079.7502   -654.37527    301988.04    14.847744 
15294000    1974.5105   -685.63991    302564.57     14.81823 
15294500    2079.2662   -677.44898    304166.83    14.798508 
15295000    1868.9496   -687.14882     299989.8     14.97869 
15295500    2006.9403   -721.75777    297061.14    15.158156 
15296000    1741.9126   -739.03543    295037.96    15.169585 
15296500    1975.9053   -751.45702    295239.92    15.206367 
15297000     2198.972   -751.83095    304785.51    15.100995 
15297500    1804.5802   -753.32247    297570.37    15.145868 
15298000    1879.7426    -751.7782    299664.58    15.156032 
15298500    1824.9167   -787.73691     297240.8    15.609439 
15299000    1770.1302   -797.15615    302519.53    15.753142 
15299500    1836.1624   -746.96073    305400.99    15.410096 
15300000    2126.2026   -736.24001    299264.77    15.461139 
15300500    1996.2005   -697.53066    298819.84    14.946167 
15301000    1885.7342    -677.0654    299105.53    14.850603 
15301500    1959.7884   -741.86983     300931.4    15.267169 
15302000     2243.388    -726.3743     300423.8    15.062588 
15302500    1709.7212   -714.91229    290737.42    15.121042 
15303000    1916.6273   -682.93599    293562.08    14.911765 
15303500    2018.0752   -661.10121    299199.75    14.781819 
15304000    1941.9751   -667.48972       301157    14.756216 
15304500    2164.7224   -689.67426    296234.57    14.907408 
15305000    2182.1789   -686.21888    302083.22    14.767849 
15305500    1990.2653   -693.93367    304470.01    14.810158 
15306000    2072.1277   -697.34309    295399.09    14.882893 
15306500    1967.6892   -648.13125    303626.26    14.803592 
15307000    2176.0007   -675.29412    302397.39    14.810343 
15307500    2056.1297   -664.45098    301117.18    14.787267 
15308000    2159.5372   -665.41209    308500.58    14.785564 
15308500    2041.2271   -726.48182    298223.64    15.231152 
15309000    2115.5353   -697.04814    301760.35    14.933291 
15309500    1837.0395   -729.36906    299951.28     15.16257 
15310000    1910.9953   -757.76549    300925.36    15.466723 
15310500    1971.0338   -755.90401    303056.27     15.42837 
15311000    1959.2301   -752.04176    298368.07     15.36686 
15311500    2062.9487   -785.66601    314075.47    15.708675 
15312000    1919.7527   -783.49986    303238.69    15.700694 
15312500    1804.8238   -792.56899    305576.84    15.816806 
15313000    1871.7441   -761.33438    298754.76    15.457216 
15313500    2259.8129   -743.30761    305835.85    15.195491 
15314000    1960.4986    -691.3367    298979.17    14.907724 
15314500    1867.7505   -657.82263    311058.08    14.741733 
15315000    2120.2604   -672.77569    298012.21    14.835263 
15315500      1947.99   -704.09273    292257.81    14.905991 
15316000     1912.529   -726.71797       299706    15.008905 
15316500    2031.8015   -751.23696    300114.71    15.189313 
15317000    1810.4578   -770.11258    299306.56    15.627199 
15317500    2174.2372   -737.79796    301275.09    15.267212 
15318000    2109.0132   -729.55958    307415.34    15.089606 
15318500    2101.4061    -739.5765     302020.3    15.234877 
15319000    1893.9544   -764.25855    280218.93    15.630011 
15319500    2056.1417   -710.85738    298524.59    15.114008 
15320000     2012.178    -705.0911    304031.35     15.07321 
15320500    1976.8988   -717.61946    299010.83    15.190519 
15321000    2023.5069   -714.95625    300906.18    15.079066 
15321500    1833.1488   -729.12129    298636.74    15.213772 
15322000    2056.5632   -720.03298     299938.2    15.092707 
15322500     2326.192    -766.8361    304787.81    15.627052 
15323000    2298.3055   -707.34408    311182.56    15.015777 
15323500    1995.7932   -692.55106    301228.33    15.199911 
15324000    2017.4503   -747.18267    301435.14    15.619958 
15324500    2006.5914   -773.71211    310676.53    15.830983 
15325000    2028.8978   -755.03478    292281.35    15.583323 
15325500    1906.6573    -771.0519     289339.8    15.688178 
15326000    1833.9817   -766.33235    298412.52    15.544517 
15326500    1999.8941   -641.74088    305063.21    14.632501 
15327000    2200.4746   -709.05688     301778.1    15.156287 
15327500    2086.0193   -715.51438    297804.32    15.162426 
15328000    1791.4901   -703.03086    298154.45    15.187419 
15328500    2083.4883   -711.69163    301533.39    15.159112 
15329000    2061.9148    -744.3463    300892.34    15.397256 
15329500    2002.2235   -749.15057    299962.86    15.316915 
15330000    2043.3103   -643.79006    313556.88    14.532598 
15330500    1987.3807   -654.75316    288896.59    14.572228 
15331000    2026.9834   -644.23497     295841.9    14.556003 
15331500    1948.4915   -737.13974    297238.36    15.234837 
15332000    2220.6098   -754.41158    303449.72    15.138575 
15332500    1934.5292   -756.09014    298291.28    15.141985 
15333000     2220.219   -773.45117    294547.99    15.244582 
15333500    2015.0319   -763.93447    296012.51    15.307106 
15334000    1826.3964   -748.50503    304833.72    15.128466 
15334500    2035.2923   -751.74568     292851.9     15.25448 
15335000    1950.3492   -605.08203    306006.64    14.552819 
15335500    2003.1118   -725.02912    299932.81    15.169164 
15336000    1924.4466     -749.446       298723    15.210423 
15336500    1977.8716   -718.08014    305604.22    15.059147 
15337000     2094.589   -669.78124    311531.09    14.765533 
15337500    1974.7855   -719.71841    295566.72    15.127737 
15338000    1967.5257   -679.03683    301987.63    14.858504 
15338500    1929.8692   -790.55356    291965.36    15.614531 
15339000    1853.6995   -700.52471    299382.41    14.895562 
15339500    2166.0481   -664.85565    302545.79    14.796125 
15340000    2044.0179   -667.27575     292210.3    14.887826 
15340500    1960.0534   -694.30996    300862.31    15.101793 
15341000    1946.9869   -734.30571    303773.17    15.512451 
15341500    2146.3906   -760.55573    309365.09    15.800608 
15342000    1929.5577   -766.20307    298104.05    15.818368 
15342500    2110.1745   -755.67567    305003.21    15.707911 
15343000    2031.6667   -741.35121    304509.27    15.659869 
15343500    1948.8865   -689.57395     299932.1    15.402513 
15344000     1886.762   -690.23586    297285.06    15.430081 
15344500    1826.9335   -685.54131       298191    15.406099 
15345000    1971.4229   -741.04342    286143.24     15.65594 
15345500    1951.7421   -713.16508    297285.52    15.515983 
15346000    1887.2767   -675.09389    301684.52    15.184974 
15346500    1916.8837   -636.31627    295715.03    14.874204 
15347000    2112.6138    -644.9708    294880.38    14.913646 
15347500    2044.2954   -633.23733    305930.43    14.843826 
15348000    1948.4752   -689.48662    293297.44    15.442323 
15348500    1820.2366   -681.37755    302892.07    15.359657 
15349000    1941.9385   -669.61539    299717.72    15.261314 
15349500    2018.4379   -681.89418    298318.25    15.357421 
15350000    1986.9713   -704.27018    298496.05    15.534723 
15350500    2079.2691   -609.85195    302139.43    14.976736 
15351000    1978.4448   -698.36714    302866.45    15.664168 
15351500    1920.4346   -697.67704     298950.9    15.570434 
15352000    1858.0043   -676.14782    300483.94    15.364986 
15352500    2086.3824    -722.7598    295430.05    15.720853 
15353000    1790.3494   -744.93699    288979.15    15.926507 
15353500    2026.6746   -606.71942    305890.31    14.907638 
15354000    2021.0506   -721.69047    300943.08    15.631789 
15354500    1934.4895   -685.80214    300731.64    15.408059 
15355000     1896.191   -648.14121    298417.43    15.071088 
15355500    2160.1103     -674.337    304183.76    15.298246 
15356000    1923.5428    -665.0872    295530.49    15.186419 
15356500    1935.0631   -626.12638     293784.7    15.012393 
15357000      1946.55    -651.2476    295938.71    15.239949 
15357500    1810.0878   -632.89603    299472.33    14.926168 
15358000    2007.4631   -627.79148    308081.67     14.96034 
15358500    2041.2987    -709.7575    297747.21    15.579618 
15359000    2183.9831   -626.96512     300884.5    14.940322 
15359500    2002.7945   -656.04692    305731.53    15.159236 
15360000    1950.2615   -685.81126    301070.76    15.337012 
15360500    2020.7947   -681.78576    298166.53    15.353024 
15361000    1917.9338   -680.75155    303027.12    15.264648 
15361500    2262.4308   -598.26041    295991.89    14.659818 
15362000     2037.554   -640.76251    301046.85    15.020741 
15362500    2056.2759   -668.95636     300771.2    15.189499 
15363000    2085.8975   -652.04993    293387.25    15.119761 
15363500    1949.6553   -644.05215    296845.92    14.977992 
15364000    1954.2251   -633.16942    299022.14    14.943661 
15364500    2086.2143   -663.41979    302748.61    15.177485 
15365000    1998.9902   -689.57899    295626.04    15.449896 
15365500    2042.8242   -688.90886    300374.62    15.345054 
15366000    2075.2217   -745.57258    299305.86     15.62584 
15366500     1981.076   -677.24989    307188.76    15.246231 
15367000    2181.3625   -727.48034    305965.66    15.545868 
15367500    2039.9888   -672.39031     306696.3    15.361153 
15368000    2014.2768   -665.76476    302620.96    15.220805 
15368500    2032.3795   -595.32384    299173.01    14.625845 
15369000    2119.7422   -590.85746    316980.78    14.578816 
15369500    1871.0391   -603.26087    287108.37     14.62981 
15370000    1927.9929    -586.6784     301778.3    14.562953 
15370500    1902.5942    -603.6857    299396.26    14.546397 
15371000    1943.0223   -699.49642    294366.78    14.953862 
15371500    1863.4117   -742.32008    298362.35    15.331386 
15372000    1926.7864   -765.73104    298688.46    15.564552 
15372500    2085.3545   -752.48181    299906.14    15.455373 
15373000     1994.592    -749.1793    299850.24    15.372098 
15373500    1787.7098   -749.69688    297472.88    15.477337 
15374000    2053.0612   -733.39423    307707.12     15.27412 
15374500    2077.1465   -742.52434    303726.57    15.363924 
15375000    1805.3609   -746.04594     301263.8    15.365854 
15375500    2062.5209   -738.97096    308720.62    15.305048 
15376000    2041.9769   -731.32503    312470.79      15.2554 
15376500    2086.7507   -755.73914    299558.31     15.51524 
15377000    2151.0051    -754.2374    302901.93    15.547143 
15377500    2033.3838   -760.13002    297910.67    15.756274 
15378000    1876.9119   -752.94766    300538.69    15.814311 
15378500    1922.9341    -758.1222    291459.95    15.849139 
15379000    1994.9075    -706.7293    297077.96    15.488852 
15379500    1855.0595   -609.88289    293233.08     14.73087 
15380000    1847.3033   -695.93718    298743.02    15.400331 
15380500    2003.2002   -699.38607    303027.04    15.288293 
15381000    1983.0722   -679.04224    302729.15    15.362694 
15381500    1970.6852   -680.41532    301638.03    15.288384 
15382000    1866.7541    -703.6447    293404.89    15.463662 
15382500    1885.2351   -684.14435    301282.52    15.293366 
15383000    2038.2254    -604.9404    292764.84    14.732364 
15383500    2179.0109   -596.84107    319754.18    14.521429 
15384000    2155.3839   -605.58316    293747.64    14.534104 
15384500    2165.4584   -604.36201     283540.8    14.561111 
15385000    1994.8732   -601.88845     285612.6     14.59304 
15385500    1959.0929   -602.45299    321852.71    14.496403 
15386000    1852.9668   -618.21571    314702.76    14.500746 
15386500    1956.4899   -680.59472    303290.81    14.818767 
15387000    2106.1801   -695.55125    301956.66    14.874903 
15387500    2032.7408   -673.82567    303974.21    14.814081 
15388000     2022.868   -714.80682    302323.82    15.132914 
15388500    1947.6432   -783.20721    315734.18    15.736551 
15389000    2126.8328   -784.39536     316767.7    15.729628 
15389500    1901.4005   -781.72673    309548.45    15.704519 
15390000    1803.0025   -791.04545       299033    15.756078 
15390500    2034.9482   -791.78389    291788.77    15.798823 
15391000    1940.2609   -787.35439       309961    15.786931 
15391500    2124.3628   -751.07702    301335.94    15.356907 
15392000    1793.4401   -755.13903    301574.41    15.520105 
15392500    1924.6871    -753.9057    291967.75    15.512326 
15393000    2022.0091   -761.85675    296114.83     15.51113 
15393500    2097.0787   -748.29389    307537.95    15.458309 
15394000      2036.33   -707.55574    308794.62    15.093447 
15394500    1866.2236   -761.27714    290412.91    15.570502 
15395000    2018.5503   -754.37935    296946.38    15.426362 
15395500    2081.9479   -655.34084    307458.84    14.756799 
15396000    1783.6944   -667.17007    295740.58    14.775843 
15396500    2078.8402   -722.05928    294322.32    15.266174 
15397000    1945.8982   -696.58229    299530.53    15.261756 
15397500    2084.0316   -722.57551    297960.53    15.189863 
15398000    1983.6936   -750.64272    306847.34    15.459274 
15398500    2045.7867   -760.12468    289346.49    15.529969 
15399000    2037.4122   -766.04839    300458.67    15.595115 
15399500    2060.2555   -656.91022    312066.95     14.69896 
15400000    1763.9628   -650.61584    299340.56    14.816246 
15400500    1969.5685   -690.53139    299373.34    14.863178 
15401000    1851.7214   -662.77215    299079.27    14.796633 
15401500    2163.4404   -681.94427    301694.82    14.855666 
15402000     2030.075   -668.41318    307956.95    14.764242 
15402500    2009.2559   -672.94374    302833.66    14.796668 
15403000       1790.5    -669.4336    305345.08     14.75785 
15403500      2062.34   -723.41821    294279.23    15.128576 
15404000    2056.3072   -677.21306     299112.9    14.827243 
15404500     2056.268   -670.01131    312796.53    14.716605 
15405000    2055.1216    -786.0991    299233.06     15.63802 
15405500    1857.6033    -800.7987    300565.63    15.809231 
15406000    1927.5003   -764.59173     298157.5    15.553488 
15406500    1971.8957   -786.60215    304558.84    15.552358 
15407000    2090.4157   -790.62405    300864.71    15.550456 
15407500    1952.4836   -789.80347    297153.47    15.653518 
15408000    2088.4772   -756.49786    293634.05    15.322773 
15408500    1986.6089   -626.74963    304314.09    14.535646 
15409000    2112.6078   -642.40192    296087.78    14.574112 
15409500    2077.4083   -685.29637    298570.62    14.910016 
15410000    1883.3927   -675.93314    300260.06     14.82328 
15410500    1896.9385   -694.91181     294864.6    14.863146 
15411000    1909.0391   -738.03537    300847.45    15.110351 
15411500    1952.6043   -788.99459    302274.41     15.59014 
15412000    2114.2024   -737.74384    301676.22    15.248079 
15412500    2049.8922   -698.00879    305080.94    15.063189 
15413000    2166.9698   -767.33823    298121.57    15.578898 
15413500    1973.7109   -781.28455       301844    15.610919 
15414000    1863.0631   -757.20407    298740.17    15.508005 
15414500    2117.7376   -686.63484    297614.61     14.90681 
15415000    2189.0038   -601.57266    305007.51    14.560253 
15415500    2272.3053   -603.98836    287280.14    14.585708 
15416000    2048.4554   -615.46049    294696.85    14.523118 
15416500    1911.9266   -636.64409    306260.44    14.536148 
15417000    1962.0572   -660.93828    297796.63    14.624229 
15417500    2038.7784   -743.67696    299201.27    15.208429 
15418000    1983.4499   -744.09615     301428.1    15.331034 
15418500    2135.9433   -736.30778    302001.81    15.326997 
15419000    2037.1084   -684.91046    297692.77    14.916233 
15419500    2006.7573   -678.07845    301616.21    14.790664 
15420000    2147.6417   -664.02605     301208.2    14.770976 
15420500    1856.8391   -741.81457    301953.24    15.377116 
15421000    2174.4946   -751.39011    303733.29    15.374121 
15421500    1839.9154   -761.94678    300833.85    15.547331 
15422000    1959.8528   -759.01267    302182.41    15.490666 
15422500    1925.0419   -659.16862    308028.56    14.741016 
15423000    2136.1308   -727.98441    292143.66     15.17783 
15423500    2065.8512   -750.85225    302867.21    15.376921 
15424000    2030.6364   -786.52722    295918.28    15.699869 
15424500    2055.4551   -747.39889    304527.61    15.387714 
15425000    1744.4977   -755.44059    296136.83    15.433838 
15425500    2093.0218    -776.5678    297922.32    15.511078 
15426000    1986.2073   -716.05527    299923.27    15.155187 
15426500    1967.2455   -659.96065    308166.25    14.733025 
15427000    1954.2538   -664.89204    307715.39    14.757898 
15427500    2055.9266   -681.39351     294972.8    14.880452 
15428000    2047.9294   -675.45361    300422.57    14.801155 
15428500    1940.1483   -733.03115    297767.55    15.210206 
15429000    2144.2746   -719.58445    305339.94    15.063006 
15429500    2065.2682   -674.93669    300288.03    14.802873 
15430000    2049.8314   -664.17286    299756.41    14.828166 
15430500     2128.405   -664.92186    310243.53    14.737188 
15431000    2113.2367   -656.83313    304778.47    14.782862 
15431500    1938.5843   -674.24087    297685.24     14.90072 
15432000    2034.2791   -705.73997    306850.75    14.954013 
15432500    2003.1831   -757.29451    303922.17    15.428324 
15433000    1818.5373   -759.35704    298305.05    15.533056 
15433500    1936.0102   -789.74345    297105.58    15.735173 
15434000    2126.8419   -761.14527    305187.41    15.445062 
15434500    1973.5804   -758.26717    296756.54    15.565351 
15435000    1904.5141   -761.41348    284062.65    15.877193 
15435500    2070.4492   -773.90625    303070.58    15.858712 
15436000    1980.7314   -752.80052    303226.54    15.658163 
15436500    2011.1415   -665.63031    306930.33    15.137539 
15437000    1928.2816   -668.55852    306212.63    15.266383 
15437500    1949.3757   -659.27953    301121.35    15.159672 
15438000    2123.6347   -634.16778    299669.95     14.93572 
15438500    1951.4088   -655.07057    298666.42    15.130213 
15439000    1905.2205   -706.83766    301262.07    15.504019 
15439500    2069.3513    -633.2678    296872.92    14.937009 
15440000    2083.0116   -654.84751    301039.44    15.082227 
15440500    1879.1344   -671.46953    300884.17    15.266647 
15441000    2176.9897   -756.79261    299988.13    15.727269 
15441500    2043.9344   -762.80124    300014.77    15.784293 
15442000    1906.2209   -763.19239    305535.89       15.768 
15442500    2093.8059   -766.30836    309827.28    15.779645 
15443000    1962.0293    -755.9569    284374.09    15.859224 
15443500    2012.2026   -771.37313    300434.05    15.844988 
15444000    1971.1597   -747.63971    302231.48    15.508412 
15444500    2048.5745   -773.10035    309738.88    15.794728 
15445000    1994.0071   -778.88761    285855.13    15.883067 
15445500     1989.103   -742.35844    302779.34    15.537023 
15446000    2003.2598   -741.95478    308391.25     15.30834 
15446500    1891.9135   -752.07522    296464.42    15.413193 
15447000     2022.948    -757.5644     291916.6    15.478533 
15447500    1919.4102   -762.85916    293783.09    15.544399 
15448000    1924.1408   -750.27695    297730.32    15.474125 
15448500    1797.7496   -739.90544     298571.4    15.502602 
15449000    2044.8206   -742.39444     299816.1    15.401566 
15449500    2106.2135    -744.0348    294638.55    15.365073 
15450000    2015.6962   -767.26331    297405.26    15.561131 
15450500    1920.0265   -764.01571    297980.56    15.675743 
15451000    1960.1125   -726.51983    300702.54    15.280546 
15451500    1950.8289   -749.01589    292638.41    15.460729 
15452000    2029.2576   -764.38251    294292.57    15.595653 
15452500    2089.1898   -747.33195    301834.63    15.440187 
15453000    1948.2774   -753.17018    299750.35     15.38335 
15453500    1960.4435   -752.02533    299894.06    15.391324 
15454000    1975.6018   -749.34982    301962.32    15.359133 
15454500    2007.3515    -736.1282     295907.8    15.412017 
15455000    1900.4629   -742.01073    304354.13    15.497759 
15455500    1934.2945   -750.73004    297681.23    15.396444 
15456000    2062.2921   -757.74975    297762.61      15.4745 
15456500    1894.1762   -749.96817    294937.49    15.417776 
15457000    2005.0041   -739.53421    296287.51    15.307566 
15457500     1854.064   -728.55856    306082.58    15.332768 
15458000    2073.8384   -750.90778    300008.36    15.468759 
15458500    1978.6194   -751.69999    297075.93    15.381847 
15459000    1809.1507   -742.58966    302720.98    15.385678 
15459500    2031.1668   -755.12588    297441.12    15.435467 
15460000    2039.4188   -740.35884    300936.24    15.252778 
15460500    2004.5037   -723.45493     293398.8    15.083992 
15461000    1988.9193   -693.26419    300969.74    15.002392 
15461500    2099.4401   -771.11453    314311.27    15.752587 
15462000    2201.7102   -718.10331    306158.13    15.455226 
15462500    1836.1937   -706.88106    293765.91    15.267086 
15463000    1948.6381   -773.30941    298536.88    15.656386 
15463500    2140.4781   -748.73216    309662.58    15.468432 
15464000     2093.493   -753.27844    301319.95    15.400756 
15464500     1987.989   -724.26203    299867.36    15.202988 
15465000    2052.2785   -732.58981    299476.64    15.400175 
15465500    1768.8456   -706.83134    295186.23    15.113397 
15466000    1919.9963   -710.89513    292294.43    15.154715 
15466500    2027.3446   -775.43509    293743.89    15.666634 
15467000    1907.1673    -785.9945    301652.51    15.750997 
15467500    1960.6644   -706.16918    306073.91    15.025992 
15468000    2103.0377   -779.16483    293786.48    15.690269 
15468500    1911.0725   -792.70611    309035.55    15.774983 
15469000    2008.4543   -763.13135    301097.38    15.465306 
15469500    1963.2528   -643.19753    302275.04     14.72856 
15470000    1939.3116     -759.721    295146.53    15.456707 
15470500    2121.2029   -763.11792    298584.12    15.551263 
15471000     2084.219   -701.25549    301425.11    15.106025 
15471500     2063.013   -713.64751    301828.21    15.066922 
15472000    2147.4659   -700.06418    304965.74     14.84684 
15472500    1877.6925   -739.44835    297196.44    15.248816 
15473000    2121.0316   -698.31184    300849.39    15.037758 
15473500    1984.2808   -780.31152    313956.49      15.6966 
15474000    1910.8016   -788.80189    313521.81    15.731155 
15474500    1946.6354   -765.55933    296732.68     15.45187 
15475000    2058.7297   -710.17413    292635.22    14.890936 
15475500    2153.1521   -697.18592    298941.99    14.855684 
15476000    1841.2539   -698.80449    298287.76    14.834718 
15476500    2099.9454   -690.79242    304088.93    14.825259 
15477000    1797.6258   -686.81792    300260.17     14.82744 
15477500    2081.4033   -675.74279    305565.93    14.766414 
15478000    1998.3493    -703.0679    290657.07    14.852781 
15478500    1786.0049   -755.62125    298352.22    15.194355 
15479000    2045.1849   -746.52234    304955.81    15.136972 
15479500    2026.2727   -748.09387    297344.94    15.181666 
15480000      2090.14   -689.25603     308333.8    14.853219 
15480500    2045.1195   -659.13576    295596.14    14.828769 
15481000    1939.4596    -689.1617    306913.56    15.017221 
15481500    1935.6077   -783.22887     319001.5    15.780558 
15482000    2122.6206   -757.61635    295185.37    15.385923 
15482500    1953.7544   -702.69202    301106.11    15.005266 
15483000    1993.9565    -691.7453    294320.69    14.970274 
15483500    2108.6941    -613.1598    277925.14    14.564924 
15484000    2032.0675   -606.52579    288456.08    14.597333 
15484500    2074.2976   -624.80389     291521.1    14.636924 
15485000    2215.7297   -618.35947    284364.68    14.565803 
15485500    2033.7107   -611.58198    288698.36    14.516031 
15486000    1986.4926    -675.0228    295590.68    14.978026 
15486500    1966.7407    -749.0264    300840.25    15.594583 
15487000    1992.9833   -743.19629    301034.38    15.584033 
15487500    2100.7948   -751.28998    298557.82    15.601703 
15488000    1922.0409   -751.93401    302686.95    15.539423 
15488500    2147.6611   -757.70043    308534.69    15.429714 
15489000    1835.5684   -745.37121     301221.5    15.411063 
15489500    1986.6455   -759.42777    295410.43    15.304766 
15490000    1881.1764   -692.46205     286828.5    14.889826 
15490500    1945.1833   -684.59527    294072.89    14.836846 
15491000    1906.4364   -660.18651    303579.15    14.816815 
15491500    1986.6953   -747.35143    299538.82    15.309876 
15492000     1992.862   -660.99363    303317.05    14.716543 
15492500    2050.8415   -718.63088    300997.63     15.01258 
15493000    2135.5694    -758.4071    300768.32    15.534211 
15493500    1931.6651   -789.79573    295128.14    15.757243 
15494000    1997.4582   -800.01433    292715.15    15.815904 
15494500    2050.7028   -781.28292    309046.11    15.515251 
15495000    1922.4051   -767.54441    294698.22    15.578803 
15495500    2035.8081   -741.37558    304691.02    15.447926 
15496000    2174.3428   -763.10806    302885.26    15.515386 
15496500    2111.2151   -772.74567    290577.72    15.636017 
15497000    2070.0723   -764.39715    303046.85    15.438678 
15497500    2024.7212   -786.73435    305932.01    15.780518 
15498000    1937.3269     -778.543    300014.07    15.752245 
15498500    1865.6759   -793.11134    308993.49    15.799738 
15499000     1908.981     -771.215    302592.59    15.424431 
15499500    2070.8538   -654.33259    294752.98    14.698197 
15500000    1816.7595   -630.34567    290771.49    14.604189 
15500500    1969.0876   -688.63583    296910.57    14.877269 
15501000    1931.9035   -720.73949    296749.73    15.195857 
15501500    2147.2701   -721.20888    306613.22    15.128542 
15502000    1920.5511   -747.27121    303529.99    15.358344 
15502500    1912.2891   -732.78195    297601.43    15.166564 
15503000    2001.6253   -707.33166    297433.68    15.035848 
15503500    1971.8321   -704.34447    297105.84    15.016284 
15504000    1977.0637   -757.55943    301134.01    15.443233 
15504500    1968.4514   -759.83519    300588.62    15.480109 
15505000    1934.8591   -767.21001    302297.25    15.548109 
15505500    2009.2199   -753.48932    301621.14     15.57777 
15506000    1940.1508   -749.12591    279859.52     15.66816 
15506500    1966.1676   -760.75193    307311.16    15.829905 
15507000    2025.3182   -753.88442       306518    15.764822 
15507500    1966.6866   -738.53983     305187.6    15.555279 
15508000    2286.4229    -754.4867    299824.22    15.604338 
15508500    2004.4118   -748.67319    300977.86    15.592425 
15509000    2095.1112   -750.62363    293295.99    15.739382 
15509500    2057.5708   -746.76834    303002.62    15.572862 
15510000    2111.5414   -747.78838       302304     15.63925 
15510500    2136.7725   -737.01031    308372.68    15.320729 
15511000    1970.0222   -746.48719    306518.25    15.444951 
15511500    1933.9272   -758.66413    298915.31    15.762844 
15512000    2147.8364     -749.392    306121.15    15.669646 
15512500    2101.1538   -727.35158    287629.36    15.747713 
15513000    1968.8801   -632.79527    303089.59    14.901958 
15513500    2120.5207   -634.02561    302618.88    14.840841 
15514000    1913.8876   -640.04193    298085.14    14.898883 
15514500    2116.4434   -593.57479    296147.86    14.630658 
15515000    1943.5168   -640.04436    300088.66    14.983247 
15515500    2364.0211   -631.08372    305939.87    14.923975 
15516000    1932.7212   -701.59451    297625.27    15.458189 
15516500    2124.6972   -671.90345    300951.65    15.236558 
15517000    1978.3448   -703.40084    298812.12    15.450416 
15517500    1945.7142   -709.50784    298875.93    15.427299 
15518000    1969.8546   -740.83933     303076.5    15.563224 
15518500    1958.1079   -768.99351    297780.82     15.84247 
15519000    2078.1263   -754.14813    294000.33    15.552504 
15519500    1945.6148    -757.4138    296985.95    15.659868 
15520000    1952.1281   -745.99981    288214.16    15.566558 
15520500    2013.2765     -754.525    298963.17    15.535939 
15521000     1838.975   -749.38481    299545.64    15.533483 
15521500    1928.1119   -744.52238    300367.21    15.529935 
15522000    2170.9445   -763.44312    288602.27    15.481385 
15522500    2167.4704   -747.92856    306231.61    15.334008 
15523000    2021.7813   -722.68467    308609.25     15.27181 
15523500    1950.2464      -753.62     298583.1    15.539379 
15524000     1893.631   -756.45902    300949.58    15.381416 
15524500    2052.6274   -679.35369    307139.12    14.807652 
15525000    1987.4234   -748.56847    298553.71    15.205244 
15525500    2007.7994   -738.71506    307909.02     15.05005 
15526000    2043.4834    -746.1714    303067.57    15.192201 
15526500    1892.0077   -768.46117    295842.25    15.357833 
15527000    2192.1827   -792.55185    296781.33    15.546824 
15527500    1990.9284   -797.70256    303567.99    15.753206 
15528000    2091.4797   -671.19819    318846.23    14.701739 
15528500    1841.4818   -724.67098    290947.58    14.907109 
15529000    2111.4372   -694.64021    314581.99    14.748527 
15529500    1812.4626   -687.78722    305764.27     14.79847 
15530000    1894.4511   -695.81952    294148.73    14.883635 
15530500    2034.7127   -692.16592    313438.72    14.805692 
15531000    2167.6159   -758.55886    293482.57     15.23331 
15531500    1994.4764   -808.37149    303017.88    15.878355 
15532000    2059.4918   -797.45426    302565.68    15.748825 
15532500    2066.1408   -792.56078    291592.04    15.751919 
15533000    2246.5087   -783.32147    303856.52    15.633271 
15533500    1878.5436   -761.68264     296438.6     15.43571 
15534000    1975.6628   -740.44716    304365.41    15.122327 
15534500    1994.7714   -761.67787    296485.31    15.328642 
15535000    2105.4445   -720.11194    302822.51    15.097381 
15535500    1980.5078   -793.13319    301491.25    15.756429 
15536000    1927.4085   -808.73073    309653.19    15.838605 
15536500    1913.7811   -809.48381    272367.41    15.896625 
15537000    1957.1309   -635.77144     331250.4    14.509185 
15537500    2020.6258    -707.9182    295454.96    14.985794 
15538000      1947.23   -679.75055    305066.78     14.77859 
15538500    2074.0721   -660.52141     301304.8    14.814188 
15539000    2081.5422   -706.95134    303672.76    15.156514 
15539500    2098.1267   -754.49414    301002.89     15.49909 
15540000    2225.4156   -782.51775     303757.6    15.651258 
15540500     2046.436   -759.62394    296802.67    15.526179 
15541000    2203.3378   -748.75536     310782.7    15.489885 
15541500    2111.3774   -750.13251    303738.53    15.466878 
15542000     2010.256   -747.91853    300672.95    15.426376 
15542500     2196.754   -756.89268    302997.41    15.425881 
15543000    1937.1891   -754.62295    295875.91    15.481484 
15543500    2105.1542   -758.29525    301740.84    15.377614 
15544000    2024.9949   -780.35738    304389.61    15.442297 
15544500    2000.5377     -726.184    298125.58    15.132435 
15545000    1893.0097   -780.27867    298906.09    15.599434 
15545500    2067.4584   -761.12665    298280.46    15.431816 
15546000    2227.3542   -769.04986    295866.53    15.598445 
15546500    2017.3034   -750.57152    309595.96    15.480344 
15547000    2063.3572   -760.20761    284115.65    15.620095 
15547500    2114.3882   -785.94168    307049.74    15.824045 
15548000    2003.9826   -771.21646    296273.26    15.848663 
15548500    1987.1473   -762.76402    303218.05    15.738455 
15549000    1950.1008   -758.56935     298839.8    15.566769 
15549500    1971.8216   -762.11085    291708.67    15.501705 
15550000    1873.6591    -744.0847    307999.94    15.302469 
15550500    1930.7457   -751.09713    303733.85    15.358855 
15551000     1840.728   -746.95333     299413.1    15.385205 
15551500    1882.6684   -759.15044    294555.75     15.49288 
15552000    2013.1119    -745.8987    305387.37    15.414365 
15552500    2031.7873   -777.34124     317969.9    15.775634 
15553000    1889.1132   -770.27021    301682.65    15.826888 
15553500    1891.6879   -772.07487    314596.58     15.78837 
15554000     1794.905   -734.62184    300514.06    15.597938 
15554500    1968.1506   -760.11716    289082.16     15.91174 
15555000    1985.8583   -641.02578    298278.54    15.009927 
15555500    2074.2924   -621.08924    312219.97    14.922025 
15556000    1882.2359   -684.28381    300531.62    15.385758 
15556500    1852.9756   -706.97631    304235.32    15.472844 
15557000    1799.4721   -757.92357    296798.36    15.865271 
15557500    2226.8701    -748.4419    304792.07    15.713907 
15558000    2039.7572   -731.17478    303266.54    15.672976 
15558500    2006.6607   -674.15016    298745.21    15.347321 
15559000    2021.6361   -659.65604    297438.68    15.354529 
15559500    1995.6599   -654.44422    297620.07     15.35106 
15560000    1901.8077   -688.85641    294305.94     15.54385 
15560500    1884.6556   -649.59287    296539.69    15.166195 
15561000    2037.4293    -683.1584    301470.73    15.298015 
15561500    1863.5324   -676.96992    301276.47    15.378134 
15562000    1862.9216   -662.58965    293354.43    15.389044 
15562500    1848.4119   -726.38601    293478.63    15.882653 
15563000    1994.6686   -647.88682    296928.29    15.268707 
15563500    2140.0829   -673.92714    303662.72    15.321334 
15564000    1764.3956   -681.14921    299007.77    15.383017 
15564500     1975.307   -670.97605    296939.89     15.40622 
15565000    1884.9315   -686.26013    299849.96     15.48413 
15565500    1883.1059   -713.65504    300380.73    15.753454 
15566000    2003.7684   -686.12632    295823.23    15.474883 
15566500    2090.7219   -606.42771    295832.39    15.110004 
15567000     2119.608   -604.21402    295306.46    14.996798 
15567500    1980.7223   -619.10005    295729.29    15.005627 
15568000    2025.3107   -661.71662    301426.83    15.341879 
15568500    1916.8656   -710.18644    303280.17    15.747174 
15569000    1983.6973   -697.11766    297328.51    15.694625 
15569500    1986.9869   -726.41786    302937.28    15.772596 
15570000    1975.7401   -691.63698    300150.88    15.560748 
15570500    1822.4669    -634.8625    294114.54    15.178379 
15571000    1991.6616   -641.44115    301969.56    15.249538 
15571500     1921.254   -718.64726    295824.94    15.818681 
15572000    1853.7546   -719.19714    300270.02    15.711733 
15572500    1879.2172   -752.10174    302350.58    16.019693 
15573000    1885.5799   -645.61059    302607.41    15.213348 
15573500    2060.7129   -630.21164    300467.34    15.005554 
15574000    1946.0341   -660.72011    295558.18    15.153643 
15574500    1999.8752   -678.49851    301087.76    15.379411 
15575000     2018.338   -701.53361    301499.48    15.591154 
15575500     1935.075   -711.36416    299998.38    15.718222 
15576000    2181.4567   -692.41946    295810.29    15.502286 
15576500    1993.9335   -599.57666    311979.52    14.915392 
15577000    1992.0024   -704.55859     300769.1    15.734796 
15577500    2137.6967   -710.99598    300516.99    15.786727 
15578000    2107.4221   -692.74887    303355.57    15.627843 
15578500    2048.3165   -609.07725    301584.96    14.986769 
15579000    2096.3951    -634.4416    303922.14    15.111404 
15579500    1856.1129    -609.5332    302168.43    14.997321 
15580000    2043.9826   -660.57176    299644.78    15.309831 
15580500    2169.3014   -685.69522    300347.69    15.410025 
15581000    2132.4788   -691.17487    298038.61    15.462973 
15581500    2101.5119   -727.29602    299786.74    15.838579 
15582000    1932.2326   -718.02914    293068.99    15.846474 
15582500    1983.3411   -660.46499     304474.2    15.270597 
15583000    1945.9652   -605.72852    298025.55     14.96781 
15583500    2123.8972   -685.70193    301402.19     15.38054 
15584000    1999.7119    -630.1956     299857.7    15.155221 
15584500    2070.5913   -654.95916    304187.19    15.340509 
15585000    1855.2321   -659.95975    302549.55    15.391871 
15585500    2108.3917   -659.91904    305532.75    15.378631 
15586000    2081.1527   -753.80453    283454.52    16.117916 
15586500    1959.6789   -759.31164    296027.24    15.986755 
15587000      2014.11   -715.72332    302373.97    15.444974 
15587500    1903.6783   -740.49572    302949.85    15.594874 
15588000    1926.3114   -754.01481    302240.53    15.702252 
15588500    2075.6913    -747.1125     299047.5    15.486589 
15589000    1837.0472   -732.51437    298793.39    15.399272 
15589500    2023.8405   -746.93946    298451.15    15.599544 
15590000    2125.6494   -756.70246    299530.56    15.713303 
15590500    2024.5739   -728.68231    294115.36    15.523979 
15591000    2028.7359   -588.73551    292194.94    14.592753 
15591500    1888.2194   -595.09536    294835.67    14.635364 
15592000    1934.5163   -626.71494    300238.96    14.770114 
15592500    2044.4674   -677.58788    298137.25    14.997435 
15593000    1985.0268   -633.09932    304182.76    14.775644 
15593500    1974.4286   -627.33828    290717.42    14.736455 
15594000    1980.3633   -586.73772    295635.08    14.611935 
15594500    2152.6428   -541.56697    327467.95    14.519227 
15595000    1786.3324   -673.00548    300619.26    15.401103 
15595500    2047.9853   -673.67618    300154.84    15.407088 
15596000    2102.7923   -689.05185    305262.87    15.421584 
15596500    1887.6333   -736.94586    297701.87    15.865572 
15597000    2085.8341   -678.22878    297024.98    15.429901 
15597500    2136.7677   -680.49819    300989.74    15.518266 
15598000    1952.3202   -652.73526    298086.59    15.370123 
15598500    2163.0072   -673.16177    296707.85    15.353194 
15599000    1974.0486   -734.60553    289342.65    15.891262 
15599500     1929.748   -718.72232    299110.19    15.529884 
15600000    2020.4142    -652.2787    306209.72    15.225358 
15600500     1908.926   -676.14909    299628.68    15.370189 
15601000    2084.5235   -706.35909    308519.39    15.461072 
15601500     1985.123    -680.3372    298771.89    15.481859 
15602000    2044.5509   -687.54148    298421.23    15.447345 
15602500    1879.5594    -675.2169     302830.8    15.324222 
15603000    1971.8675   -647.45091    298250.08    15.042303 
15603500     2045.157   -714.25201    295984.25    15.585712 
15604000    2038.4041   -756.08313    303646.46    15.953036 
15604500    1983.5873   -713.67589    300799.72    15.768853 
15605000    2080.0147   -704.80747    297575.87    15.522944 
15605500    1944.3044   -670.99784    301536.07    15.377073 
15606000     2261.179    -724.8978    299318.03    15.790799 
15606500    2104.4702   -692.54907    299402.72    15.627488 
15607000    1937.3602   -710.18665    295525.43    15.892764 
15607500    2011.5459   -707.78135    300673.06    15.721648 
15608000    1960.0461   -724.48287    298066.73    15.820098 
15608500    1995.9147   -708.00402    297826.62    15.554759 
15609000    2010.3871   -692.28457    301480.64    15.387753 
15609500    1956.2424   -755.45717    297211.21     15.93844 
15610000    2218.8165    -731.1787    306201.67     15.42153 
15610500    2002.4547   -767.34895    297252.84    15.795714 
15611000    1968.4851     -753.134    302799.44    15.621828 
15611500    1931.4357   -721.00092     304285.3    15.327535 
15612000    2066.0755    -614.2335    303630.12    14.637511 
15612500    1924.5856   -659.60243    304058.26    14.853375 
15613000    2154.0223   -661.57381    305228.14    14.848105 
15613500    1935.0028   -644.56954    296222.17    14.776597 
15614000     2087.573   -716.59503    306909.06    15.199757 
15614500    2122.2471   -744.18205    301417.41    15.554886 
15615000    1984.1446   -698.86915    300181.22    15.183017 
15615500    1886.4648   -627.40394    298779.83    14.889518 
15616000    1872.8383   -639.54797     283439.7    14.748879 
15616500    1946.9288   -634.30676    305225.96    14.661426 
15617000    1921.8104   -670.08547       310247    14.760022 
15617500    1771.4638   -668.21899    294926.06    14.777972 
15618000    2109.6065   -623.35685    307360.15    14.618019 
15618500    2009.0573   -686.63002    295925.44     14.95273 
[...]
29848000    1915.7456    -696.3785    298520.94     14.82018 
29848500     2109.711   -715.83371    294715.65    14.833216 
29849000    1860.5577   -690.08583    300299.49    14.831757 
29849500    1819.7605   -741.98722    295591.54    15.331723 
29850000    2071.5849   -742.68443    303962.09    15.364858 
29850500    2178.5168   -759.13114    299628.73    15.535998 
29851000    2003.4739   -742.62562    304446.15    15.507427 
29851500    2020.6919   -758.89688    291026.52     15.49601 
29852000    2140.0185   -762.86731    298690.96    15.547761 
29852500    2083.2818   -694.28658    305695.94    15.122414 
29853000    2063.8961   -793.70537    304090.38    15.730861 
29853500    1978.0336   -801.77193    297304.67     15.83395 
29854000    1939.3646   -791.79593    292609.11    15.603412 
29854500    2131.6244   -787.44657    300832.47    15.537966 
29855000    1938.7623   -717.00314    302447.04     15.04646 
29855500     2166.309   -658.29445    289539.19     14.62716 
29856000    1932.8362   -641.03799     292291.8    14.586769 
29856500      2140.75   -618.00199    284403.94    14.528781 
29857000    2088.8688   -628.47396       290928    14.550143 
29857500     2069.817   -599.47758     341792.2    14.503333 
29858000    2076.0923   -709.02049    301752.22    15.130456 
29858500    2109.3517   -774.57603    309532.08     15.85861 
29859000    1938.6886   -740.61363    301502.41    15.653431 
29859500     2069.634    -767.0916    304556.43    15.837414 
29860000    1885.5868   -762.95645    305883.84    15.828142 
29860500    2031.2698   -751.02991    298220.46    15.767983 
29861000    2009.8043   -761.18146    304833.53    15.715737 
29861500     1826.883   -769.18193    300124.39    15.882214 
29862000    2130.7937   -751.22248    305102.65    15.682835 
29862500    2013.8665   -755.18772     302342.9    15.780546 
29863000    2053.9134   -744.71187    299157.91     15.59676 
29863500    1902.8488   -737.66119    303477.51    15.545092 
29864000    2074.4145    -766.8399       310096    15.768527 
29864500    2099.7323   -773.76056     313185.5    15.851976 
29865000    2053.9427   -771.88206     299131.8    15.868669 
29865500    1891.2084   -772.15196    287545.93    15.915538 
29866000    2229.4006   -760.11613    305850.35    15.750756 
29866500    1992.4816   -747.47159    301974.49    15.683662 
29867000    1994.3942   -749.02023    300566.67    15.620363 
29867500    1835.7664   -665.33992    289122.52    14.955594 
29868000    1942.6982   -680.49089    293282.25    14.931271 
29868500    2144.5859   -727.68916    296208.25     15.22448 
29869000    2115.3814   -716.96066    294477.04     15.09429 
29869500    1913.8038     -665.461    310973.22     14.76221 
29870000    2038.0047   -694.57999    296684.75    14.914164 
29870500    2015.8245   -675.08808    301614.42    14.798956 
29871000    1930.1103   -679.64605     290948.3    14.846344 
29871500    2043.6612   -690.06445    304331.77    14.951044 
29872000    2155.7243   -794.92083    293866.01    15.801821 
29872500    1951.5141   -791.16103       309495     15.71225 
29873000    1922.5263   -793.65309    294443.32    15.767918 
29873500    1985.1768   -783.23526    308359.59    15.676289 
29874000    1914.9263   -783.63966    307947.86    15.829327 
29874500    2052.2315   -775.30752    290798.08     15.88094 
29875000    1930.0585   -739.57872    295034.44    15.802343 
29875500     1884.718   -693.43143    301446.51    15.324825 
29876000     1991.039   -696.65744    301994.79    15.237791 
29876500    1989.0287   -677.50033       298329     14.97649 
29877000    2031.4255   -666.95417    302501.33    14.897155 
29877500     1911.545   -631.22287    308515.64     14.72697 
29878000    1760.1314   -649.20833    312911.41    14.696266 
29878500    1971.1231    -743.9403    301522.21    15.128361 
29879000    2041.2591   -762.76619    295624.92    15.175023 
29879500    1949.6981   -728.12018    305609.48    15.128417 
29880000    2005.3217   -786.00309    300092.05    15.660105 
29880500    1973.4811   -707.26595    302851.51    15.051392 
29881000    2077.3529   -785.80684    290951.25     15.71387 
29881500    1978.4214   -753.03168    297711.66    15.271365 
29882000    2022.4343   -710.17965    302785.83    15.027851 
29882500    2096.2591   -712.53516    303345.42    15.016637 
29883000    1947.8918     -759.236    298224.41    15.440437 
29883500    2101.2221   -699.39427    300156.51    14.883361 
29884000    1845.4158   -756.75715     297940.6    15.466983 
29884500    2270.0523   -778.86365    303769.42    15.588611 
29885000    1865.4762   -730.63969    300015.65    15.184751 
29885500    1876.1164   -656.53297    309087.47    14.666916 
29886000      2100.31   -727.51281    300286.53    15.215504 
29886500    2048.2939   -730.23901    305637.09    15.095221 
29887000    1905.7461   -740.31913    298436.22    15.171866 
29887500    1928.1216   -656.37989    300621.83    14.743407 
29888000    2010.5168   -698.56241    303466.44    14.963318 
29888500    1783.8593   -701.83037    299531.24    14.980247 
29889000    2004.5012   -680.21189    293685.43    14.874659 
29889500    2101.3304   -702.93464    301815.17    14.871115 
29890000    1945.4392   -685.66681    301009.09    14.857986 
29890500    2004.0723   -685.15093    306828.88    14.847212 
29891000    1841.5068   -731.86512    303415.56    15.167167 
29891500    1982.1449   -704.53452    290440.79    14.895036 
29892000    2003.0871   -611.68545       298999    14.550597 
29892500    1789.6713   -593.06306    324505.01    14.539529 
29893000    2232.3611    -651.9213    294471.62    14.660413 
29893500    2029.6626   -729.50115    299340.48    14.996428 
29894000    1939.4388   -758.16371    299063.34    15.425592 
29894500    1815.6387   -677.66562    299300.41    14.818841 
29895000    1979.0233   -732.03068    294284.76    15.144585 
29895500    1976.5796    -751.2614    298377.54     15.19192 
29896000    1892.4132   -758.36066    294563.16    15.153352 
29896500    1809.2798   -735.13598    304150.61     15.12326 
29897000    1953.8021   -719.38683    294081.58    15.102253 
29897500    2132.5743   -753.36348    303302.03    15.486408 
29898000    2167.1197   -787.56196    304308.69    15.481371 
29898500    2058.1234   -725.31727    298900.69    15.108001 
29899000    1972.7936   -758.88958    294005.38    15.463979 
29899500    2015.1307   -685.22504    300023.38    14.863064 
29900000    1911.2418   -682.37427    294440.69    14.803346 
29900500    2134.3194   -680.00309    301884.86    14.848185 
29901000    1912.2693   -665.73757    306697.75    14.730821 
29901500    1923.3391   -701.42372    294987.35    14.856964 
29902000    1914.8693   -723.59173    296786.72      14.9216 
29902500     1960.384   -687.09296    307302.37    14.768842 
29903000    1886.1455    -776.6134    290521.34    15.262849 
29903500    1918.1935   -744.48284     309152.4    15.114495 
29904000    1946.0513   -747.82118    297141.47    15.192659 
29904500     1942.504   -694.27492    303058.43    14.984923 
29905000    2008.8735   -679.57878    299151.53    14.825247 
29905500    2062.1506   -713.18642     291947.9    14.848474 
29906000    1974.3761   -693.74954    299624.13    14.816352 
29906500    1877.9891   -697.85332    293423.04    14.849231 
29907000    1967.3877   -662.65681    301261.46    14.761475 
29907500    1865.4322   -755.88476    293387.16    15.314231 
29908000    2063.3261   -687.88919    299190.81    14.848097 
29908500    2034.8913   -675.06784    300614.71    14.787373 
29909000     1946.752   -643.09736    301933.43    14.838794 
29909500    2046.2613   -672.37502    303354.89    14.778418 
29910000    1859.1975   -706.82482    290350.94    14.893529 
29910500     2076.227   -711.14702     306871.7    14.788133 
29911000     1947.192   -695.81787     298274.5    14.917847 
29911500     2128.537   -655.65025    297673.92    14.882635 
29912000    2055.6169   -710.01124    306387.91    15.079488 
29912500    1974.9709   -665.36648    311830.63     14.75492 
29913000    1904.9057   -661.57418    302773.61     14.71876 
29913500    2004.3578   -758.92221    303034.66    15.491823 
29914000    2090.4946   -766.37924    298534.97    15.447312 
29914500    2080.5488   -677.58976    309044.93    14.771043 
29915000    2004.3235   -652.25173    309992.43    14.731523 
29915500     1907.308   -746.75433    302091.85    15.392127 
29916000    2020.1133   -758.32427     278572.7    15.545172 
29916500    2210.5007   -767.36981    288326.67    15.603823 
29917000    2056.7647   -752.10886    306464.31     15.51589 
29917500    2106.2759   -762.31234    289024.94    15.551138 
29918000    2078.9758    -751.0889    304673.49    15.407243 
29918500    1890.6514   -731.50772    302020.64    15.338262 
29919000    1884.5624   -721.94103    294154.18    15.333418 
29919500    1903.1444   -745.90041    302532.52    15.634776 
29920000    2104.9567   -737.76929    300120.64    15.651471 
29920500    1922.4112   -654.46209    300566.13     15.18313 
29921000    1941.1309   -641.33218    294491.39    15.008124 
29921500    2100.4834    -627.9401    305360.26     14.98099 
29922000    1926.3764   -692.21452    299377.34    15.488411 
29922500    2062.4122   -705.37588    297587.68    15.513345 
29923000    2114.2935   -717.61337    301485.44    15.570767 
29923500    2013.7563   -683.10141    302984.17     15.34409 
29924000    1824.7645   -728.34966     298742.5    15.824823 
29924500    2009.1087   -700.22737     297291.9    15.598667 
29925000    1957.1255   -694.74589    297337.35    15.442801 
29925500    2141.3666   -676.19862    305480.06    15.264289 
29926000    2026.3594   -725.76408    293017.06    15.919113 
29926500    2097.5427   -705.57496    298964.21    15.807352 
29927000    1901.3596       -718.5    295643.13    15.812746 
29927500    1986.7818    -725.9572    300677.55    15.742384 
29928000    1943.1128   -695.24437     301107.2    15.509475 
29928500    2000.7873   -621.06589    293175.09    14.992439 
29929000     1990.471   -608.35096    297720.29    14.946425 
29929500    1838.8025   -661.21562    302493.53     15.41289 
29930000    1903.5478   -727.76895    297072.03    15.831208 
29930500    2192.8345   -704.71848     303864.7    15.786544 
29931000    1941.7182   -717.69928    294074.49    15.922436 
29931500    2145.0597   -627.03986    302699.61    15.083541 
29932000    2060.9652   -682.72407    301515.73    15.411248 
29932500    2079.2094   -746.95517    302199.88    16.026553 
29933000    1775.5828   -720.48001    299261.83     15.64517 
29933500    1836.3232    -746.5912    307026.38    15.944904 
29934000    2213.3039   -666.88807     308506.6    15.255563 
29934500    2189.2756   -693.32531    300684.54    15.650997 
29935000    1991.6182   -705.19965     300267.2    15.757963 
29935500    2112.3376   -713.06217    302580.77    15.725938 
29936000    1912.4145   -645.43691    302794.83    15.280391 
29936500    1979.3619   -682.77633    296178.62    15.527691 
29937000    2074.4376   -712.93721    299908.96    15.798072 
29937500    1903.2364   -716.33124    300296.75    15.791031 
29938000    1852.3223    -732.8806     298736.4    15.990009 
29938500    2018.3303   -662.90991    300799.44     15.39003 
29939000     1974.122   -628.20328    297669.95    15.056153 
29939500    1910.8492   -601.61822    299323.98    15.031489 
29940000    2039.6939   -716.42308    304298.24     15.81058 
29940500    2076.3895   -732.24541    294908.92    15.907173 
29941000    1992.9214   -692.67703    302622.69    15.355522 
29941500    2159.2296   -718.38511    301304.66    15.637397 
29942000    1812.5434   -763.60285    298016.62    15.752073 
29942500    2017.9604    -758.4812    297769.41    15.574342 
29943000    2142.7665    -746.5142    305418.21      15.4374 
29943500    1896.7635   -740.56241    299835.36    15.400835 
29944000    2063.5407   -757.97609    291516.94    15.437984 
29944500    1999.6176   -752.60692    296197.17    15.369993 
29945000    1977.3687   -749.60961    305772.49    15.299252 
29945500    1943.0326   -744.74971    296717.02    15.353433 
29946000    1874.2179   -749.24139     302335.2    15.367646 
29946500    1995.7045   -745.64416    305328.42    15.328234 
29947000    1890.5901   -757.29721    295809.19    15.426178 
29947500    2018.3222   -737.34907    308606.13    15.230375 
29948000      1722.91   -750.89701    297862.72    15.320186 
29948500    1918.0482   -710.08842    310071.72     15.03601 
29949000    1966.3953     -742.343    305521.09     15.28296 
29949500    1976.7888   -755.05912    294223.14    15.428552 
29950000    1865.3564    -747.1029    297067.46    15.357006 
29950500    1927.3591   -745.64634    303079.54    15.295835 
29951000    2000.6734   -752.90247    291506.28    15.379669 
29951500    1995.7785   -746.32898    309166.31    15.322732 
29952000    1830.5006    -763.1245    268558.19    15.493435 
29952500    1955.4797   -748.56043    300900.74    15.308532 
29953000    1986.0656   -753.33495    287130.45    15.378271 
29953500    2063.2951   -711.38129     303760.2     14.97706 
29954000    2094.3077   -703.70606    305843.86    14.915184 
29954500    1917.7125   -712.00477    295821.84    14.964845 
29955000    2049.2186   -703.72565    312905.67    14.944757 
29955500    2022.3218   -746.64111    297506.21    15.241344 
29956000    2032.5086    -719.7588    278151.79    15.033825 
29956500    1998.1442   -712.83948    286149.34    14.970465 
29957000    1980.0864   -688.22784    301405.15    14.843109 
29957500    2052.5686   -707.25726     307810.6    14.917315 
29958000    2023.6817   -701.18096    309597.93    14.909876 
29958500    1746.9761   -712.06658    302085.29    14.987198 
29959000    2045.6816   -718.31869    302352.94    14.987282 
29959500    1936.7626   -721.56059    288608.35     15.02979 
29960000    2114.2426   -754.48778    286702.42    15.280408 
29960500    1985.6755   -727.68174    286342.13    15.095421 
29961000    2139.0087   -697.03428    300914.12    14.941642 
29961500    2009.1738   -721.16198    308856.05    15.038747 
29962000    1920.4659   -722.48268    291306.74    15.047665 
29962500    1974.9183   -717.60953    307090.49    14.994699 
29963000    2001.6588   -731.26002    297579.89    15.081705 
29963500    2066.7769   -758.55729    283073.21    15.355878 
29964000    1966.0773   -728.20903    299258.43     15.11524 
29964500    1882.2224   -736.36215    291238.27    15.159786 
29965000    1895.5664   -724.56004    286868.84    15.109237 
29965500    2023.6577   -734.16472    298834.59    15.185332 
29966000    2020.0276   -709.63126    303111.97    15.021932 
29966500    2102.6494   -719.64543    302107.42    15.029593 
29967000    2029.9111   -721.16874    299093.63    15.001364 
29967500    2121.9665   -729.05728    299818.08    15.098102 
29968000    1853.7075   -711.25463    304975.19    14.969932 
29968500    1873.6514   -694.46203    306995.19    14.853518 
29969000    2171.9382   -695.38023    304520.84    14.975457 
29969500    2153.8406   -753.78548    290318.94    15.390828 
29970000    1883.6709   -699.38224    307895.73    14.933371 
29970500      1807.13   -729.92858    292789.21    15.158603 
29971000    1972.3306   -700.87952    315163.52    14.950496 
29971500    1967.3808    -727.5206    301449.67    15.141682 
29972000    1906.8919   -724.14282     301421.7    15.151548 
29972500    2191.8078   -723.41789    301528.47    15.095816 
29973000    2227.2221   -715.07056    302774.96    15.031231 
29973500    2180.6186   -743.43031    310060.83    15.254174 
29974000    2002.3105   -742.04949    294364.28    15.235377 
29974500    1919.7786   -758.55273    288454.74    15.425466 
29975000    2177.4626   -737.96922    303551.34    15.265834 
29975500    1929.6658   -743.72133    295552.09    15.372392 
29976000     2133.954   -744.18771     301804.9    15.371093 
29976500    1989.7515    -749.9622    293594.52    15.461959 
29977000    1989.8716   -746.68723     289379.4    15.687332 
29977500    2001.7371    -626.8087    301002.69    14.952885 
29978000    2068.9802   -629.23269    304630.33    14.940102 
29978500    1856.1735   -638.10589     295053.9     14.96023 
29979000    1922.6575   -627.94901    303341.53    14.807572 
29979500    1984.1063   -603.82398    292272.07     14.64687 
29980000    2045.6858   -598.28214    292746.21     14.61251 
29980500    1981.1986   -660.76488     298435.1    15.020929 
29981000    2158.6662   -596.09431    297825.44    14.618667 
29981500    1991.3444   -596.94597    305363.32    14.550856 
29982000    2101.2337    -598.5948    317948.69    14.545664 
29982500    2094.9347   -588.35931       329282    14.548751 
29983000    1975.5989    -600.8825    297381.11    14.686295 
29983500    1912.5973   -645.76172    309269.61    14.821001 
29984000    1964.9428    -631.9743    299368.22    15.008579 
29984500    2078.6957   -706.79628    299026.21    15.507564 
29985000     2175.523   -638.41811    297171.23    14.931973 
29985500    1970.0018   -640.04676    304241.68    14.936182 
29986000    1873.0293   -648.47752    292781.39    15.033813 
29986500    1937.3977   -692.47372    294577.56    15.488811 
29987000    2126.8889   -713.39803    300910.41    15.493009 
29987500    1945.5724   -697.57741    298944.37    15.358602 
29988000     2014.201      -767.99    285039.48    15.873294 
29988500    2041.5981   -759.21864    298991.94    15.700349 
29989000    1853.3236   -752.82797    298055.35    15.580438 
29989500    1972.9824   -760.09466    303186.91    15.762105 
29990000    2112.4647   -758.97483    308340.04    15.767628 
29990500    2044.4113   -776.68905    302244.98    15.847318 
29991000    2160.7625   -742.33389    299407.22    15.481025 
29991500    2119.7046   -718.89345    296692.13    15.159458 
29992000    2029.5782   -716.30834    298016.27    15.135298 
29992500    2057.1298   -720.51131     294175.4    15.154089 
29993000      1978.78   -740.84037     301045.2    15.235765 
29993500    1867.8549   -721.96394    305322.92     15.07061 
29994000    1870.8576   -755.90413    304788.95    15.421778 
29994500    1830.8992   -788.57581     311929.2    15.743669 
29995000    1878.0521   -785.81036     307989.8    15.757557 
29995500    2197.2175    -753.0248    305276.61    15.274285 
29996000    1764.0143     -757.292    296210.97    15.284627 
29996500    1963.8286   -758.95997    293118.79    15.236672 
29997000    2143.6775   -741.88008    312083.23    15.040222 
29997500     1917.366   -745.35825    305839.92    15.160431 
29998000    2024.7322    -735.5249    305128.03    15.163535 
29998500    1976.2888   -688.27067    298198.17    14.985655 
29999000    2178.4846   -757.54466    303791.86    15.489145 
29999500    2040.0704   -759.95647    301553.93    15.499006 
30000000    2268.6059   -765.55488    296874.91    15.355544 
Loop time of 60868.8 on 6 procs for 15000500 steps with 256 atoms

Performance: 42.585 ns/day, 0.564 hours/ns, 246.440 timesteps/s
99.3% CPU use with 6 MPI tasks x no OpenMP threads

MPI task timing breakdown:
Section |  min time  |  avg time  |  max time  |%varavg| %total
---------------------------------------------------------------
Pair    | 3966.5     | 4005.4     | 4071.7     |  63.8 |  6.58
Neigh   | 110.28     | 111.76     | 113.73     |  10.6 |  0.18
Comm    | 909.44     | 982.52     | 1028.1     | 139.5 |  1.61
Output  | 511.96     | 511.98     | 512.08     |   0.2 |  0.84
Modify  | 55197      | 55203      | 55213      |   2.3 | 90.69
Other   |            | 53.97      |            |       |  0.09

Nlocal:    42.6667 ave 48 max 37 min
Histogram: 2 0 0 0 0 2 0 0 0 2
Nghost:    1127.17 ave 1172 max 1082 min
Histogram: 1 1 0 0 1 1 0 0 0 2
Neighs:    3579.67 ave 3994 max 3110 min
Histogram: 2 0 0 0 0 2 0 0 0 2

Total # of neighbors = 21478
Ave neighs/atom = 83.8984
Neighbor list builds = 753052
Dangerous builds = 0

write_data	data.final
Total wall time: 16:54:34
