LAMMPS (8 Feb 2019)
Processor partition = 1
echo both

include		in.partitions
variable p_id world   0 1 2 3 4 5
include		in.temp
variable	temperature equal 2000.
variable	tempDamp equal 0.1 # approx 0.1 ps
include		in.pressure
variable	pressure equal 300000.
variable	pressureDamp equal 1.0
include 	in.seed
variable	seed world 74581 93734 128321 21934 495716 871038
units		metal
include		in.box
read_data	data.equil.${p_id}
read_data	data.equil.1
  orthogonal box = (0.192254 0.192254 0.192254) to (15.9917 15.9917 15.9917)
  1 by 2 by 3 MPI processor grid
  reading atoms ...
  256 atoms
  reading velocities ...
  256 velocities

variable 	mass equal 26.981539
mass            1 ${mass}
mass            1 26.981539
include 	in.setup
variable	out_freq equal 500
variable	out_freq2 equal 500

neigh_modify    delay 10 every 1
include		in.al
### Argon Potential Parameters ###
pair_style 	eam/alloy
pair_coeff 	* * Al99.eam.alloy Al

timestep	0.002 # According to Frenkel and Smit is 0.001

thermo          ${out_freq}
thermo          500
thermo_style 	custom step temp pe press lx


restart 	${out_freq} Restart.lmp.${p_id} Restart2.lmp.${p_id}
restart 	500 Restart.lmp.${p_id} Restart2.lmp.${p_id}
restart 	500 Restart.lmp.1 Restart2.lmp.${p_id}
restart 	500 Restart.lmp.1 Restart2.lmp.1



# NPT

include		in.dump
dump            myDump all atom ${out_freq2} dump.al.${p_id}
dump            myDump all atom 500 dump.al.${p_id}
dump            myDump all atom 500 dump.al.1
dump            myDcdDump all dcd ${out_freq2} out.${p_id}.dcd
dump            myDcdDump all dcd 500 out.${p_id}.dcd
dump            myDcdDump all dcd 500 out.1.dcd
dump_modify	myDump append yes
dump_modify     myDcdDump append yes


timer 		timeout 23:50:00 every 1000
New timer settings: style=normal  mode=nosync  timeout=23:50:00

fix             1 all plumed plumedfile plumed.start.dat outfile plumed.out.${p_id}
fix             1 all plumed plumedfile plumed.start.dat outfile plumed.out.1
fix             2 all nph iso ${pressure} ${pressure} ${pressureDamp}
fix             2 all nph iso 300000 ${pressure} ${pressureDamp}
fix             2 all nph iso 300000 300000 ${pressureDamp}
fix             2 all nph iso 300000 300000 1
fix             3 all temp/csvr ${temperature} ${temperature} ${tempDamp} ${seed}
fix             3 all temp/csvr 2000 ${temperature} ${tempDamp} ${seed}
fix             3 all temp/csvr 2000 2000 ${tempDamp} ${seed}
fix             3 all temp/csvr 2000 2000 0.1 ${seed}
fix             3 all temp/csvr 2000 2000 0.1 93734
fix		4 all momentum 10000 linear 1 1 1 angular

run             15000000 upto # 30 ns
Neighbor list info ...
  update every 1 steps, delay 10 steps, check yes
  max neighbors/atom: 2000, page size: 100000
  master list distance cutoff = 8.28721
  ghost atom cutoff = 8.28721
  binsize = 4.1436, bins = 4 4 4
  1 neighbor lists, perpetual/occasional/extra = 1 0 0
  (1) pair eam/alloy, perpetual
      attributes: half, newton on
      pair build: half/bin/atomonly/newton
      stencil: half/bin/3d/newton
      bin: standard
Per MPI rank memory allocation (min/avg/max) = 4.002 | 4.065 | 4.377 Mbytes
Step Temp PotEng Press Lx 
       0    2414.0258   -736.96035    191436.69    15.799491 
     500    1967.8213   -720.96709    274201.03    15.389047 
    1000     1987.329   -713.95456    286893.94    15.343603 
    1500    1957.1181   -711.96598    292687.62    15.310285 
    2000    2107.3348   -705.22718    304283.03    15.256202 
    2500    1924.6525   -701.14279    306468.12    15.221746 
    3000    2101.6107   -719.14587    295107.08     15.30779 
    3500    2069.8789   -686.26475    321622.67    15.111923 
    4000    1974.5875   -722.75133    286662.06    15.305848 
    4500    1965.0874   -701.53355     306439.6    15.143185 
    5000    2064.1067   -706.63094    301553.39    15.195171 
    5500    2080.3535   -694.96203    310266.79    15.105748 
    6000    2055.5329   -713.19564    283541.37    15.263592 
    6500    1894.8922   -692.07763    310093.62    15.130807 
    7000    1765.3317   -695.09485    304306.49    15.149064 
    7500    1905.2117   -704.96624    295884.72    15.221094 
    8000    1921.9892   -694.85731    299132.36    15.127462 
    8500    1934.0766   -684.37385    300700.38    15.087294 
    9000    2257.1157   -686.60706    304485.92    15.141866 
    9500     2092.189   -705.28216    294907.18    15.203813 
   10000    2024.1012   -717.70687     301154.6    15.196952 
   10500    1994.0889   -694.93059    318560.42    15.003371 
   11000     2036.233   -740.95531    302323.45    15.123002 
   11500    1987.0336   -772.53928    299829.83     15.41609 
   12000    1905.9173   -777.71253    293456.08    15.411476 
   12500    1888.8786   -767.35141    298498.55    15.472825 
   13000    2038.3772   -769.91677    302177.17    15.450283 
   13500    1908.0643   -750.96005    316624.34     15.34795 
   14000    1988.3011   -752.29095    310100.11    15.433607 
   14500     1937.709   -756.25216    296777.41    15.489269 
   15000    2128.3051   -746.27278    302778.78    15.411904 
   15500    1991.3622   -728.33205    299434.94    15.347062 
   16000    1968.4885   -757.84681    283973.15    15.512701 
   16500    1935.4602   -739.21904     288335.4    15.472007 
   17000    1874.9993   -727.56168    299215.18    15.315812 
   17500    2046.6542   -705.63164    289319.22    14.951568 
   18000    2009.4964   -710.84397    289517.33    14.951909 
   18500     2044.332   -684.51876    298920.72    15.063266 
   19000    1977.2197    -680.4714    311803.05    14.980719 
   19500    1981.9428   -667.52911    346876.58    14.857266 
   20000     2015.115   -703.81032    292362.79     15.14424 
   20500    2151.1743   -699.37443    290110.03    14.966075 
   21000      2176.91   -680.83369    304396.46    15.040035 
   21500    2110.1634   -739.39008    290055.57    15.497739 
   22000    1933.8588   -732.92396    297894.05    15.449832 
   22500    2044.8752   -721.29796    300540.13    15.350099 
   23000    2099.8479   -722.55975    303305.09     15.34207 
   23500    2027.0751   -727.24366    305566.05    15.413857 
   24000    1875.5993   -729.01899     302156.6     15.46829 
   24500    1981.9083   -732.96757    301291.94    15.567493 
   25000    2246.5926   -739.19736     304031.7    15.558986 
   25500     1985.001   -738.76937    295211.73    15.590747 
   26000    2052.5435   -734.16476    311435.98      15.5499 
   26500    2018.9365   -734.41405    311664.64    15.532208 
   27000    1818.3999   -748.26739    277246.33    15.626704 
   27500    2097.8015   -733.15597    303947.99    15.573386 
   28000    2173.8661   -733.53506     307714.2    15.576776 
   28500    1862.0776   -741.57752    289502.31    15.599751 
   29000    1930.5443   -744.43677    307308.39    15.536059 
   29500    1809.3274    -740.3536    306229.59    15.552211 
   30000    2097.4908   -749.94393    291927.61    15.576457 
   30500    1904.6649   -742.64478    291205.27    15.605585 
   31000     2313.949   -738.39948    307521.47    15.556928 
   31500     1884.387   -732.94741    310217.76     15.55056 
   32000    1776.8992   -738.99891    295715.09    15.589583 
   32500    1933.4387   -744.82706    290504.22    15.604979 
   33000     1910.731   -744.47594    289455.57    15.586855 
   33500    1982.3613   -738.68254     306270.4    15.550397 
   34000    2072.4113   -740.25676    321489.93    15.498138 
   34500    1999.7146   -743.47148    308471.53    15.543939 
   35000     2066.542   -745.15738    292039.48    15.591188 
   35500    1834.3419   -743.37312    276922.74    15.630952 
   36000    1823.9365   -737.01491    286556.59    15.621779 
   36500    2050.0567   -736.09857    297070.62    15.597197 
   37000     1971.631     -730.613    304535.44    15.575355 
   37500    1993.1414   -741.25376    306278.56    15.566329 
   38000    1869.3096   -746.54791    285083.99    15.618298 
   38500    2014.4264   -742.44778    297432.56     15.58821 
   39000    1976.1114   -749.10143     296104.9    15.589131 
   39500    1985.6391   -745.77656    288804.49     15.59635 
   40000    2036.3454    -746.7932    290505.95     15.58028 
   40500    1989.0015   -737.63799     299914.5    15.560366 
   41000    2043.6632   -745.03422    308352.17    15.530597 
   41500    2025.6387   -740.40012    289227.69    15.595027 
   42000    1930.7379   -742.02699    291695.51    15.579486 
   42500    1963.5246   -749.54694    277953.77    15.629824 
   43000    2195.4525   -719.47419     300945.4    15.490934 
   43500    2187.8504    -738.9853    299328.41    15.554039 
   44000    1887.8368   -724.75883    312853.18    15.364336 
   44500    2086.9574   -726.94651    302791.17    15.400811 
   45000    1993.0671   -715.33039    298748.68    15.220358 
   45500    1942.9698     -730.429    287146.08    15.351359 
   46000    1792.4243   -674.76711    286409.15    14.969388 
   46500    2051.4414   -676.81229    301410.45    14.925188 
   47000    2057.9444   -672.82332    298570.62    14.937532 
   47500    1976.8992   -652.45004    303363.46    14.873236 
   48000    2136.4593     -709.943    299873.85    15.174913 
   48500    1884.1433   -716.66993    306192.58    15.316077 
   49000    2135.1522    -736.5415    300060.06    15.571311 
   49500     2121.028   -720.83718    298930.97    15.534021 
   50000    1830.2779   -730.64116    297351.44    15.509878 
   50500    1933.2075   -713.44935    305807.74    15.297593 
   51000    2139.3585   -701.37204    306014.51    15.246904 
   51500     1974.094   -736.44632    295025.72    15.540664 
   52000    1841.8085   -725.14103    301648.55    15.314579 
   52500    1940.5034   -692.72431    292688.62    15.090408 
   53000    1860.5534   -745.62133    281426.51    15.609259 
   53500    2098.8515   -716.10173    303972.33     15.24005 
   54000    2014.1717   -732.10313     294979.8    15.504116 
   54500      1903.32   -703.86472    304494.92    15.243286 
   55000    1904.3727   -734.35418    304638.51    15.403417 
   55500    1887.9999   -717.86851    302083.92    15.239122 
   56000    1886.8951   -769.18244    288322.39    15.591199 
   56500    1987.7815   -782.06976    300563.49    15.602714 
   57000    1928.8773   -784.26303    296744.84    15.642446 
   57500    2192.9163   -773.18137    313912.68    15.569617 
   58000     1910.222   -759.96639    300142.07    15.556786 
   58500    2126.6388   -772.85756    308298.61    15.588084 
   59000    1955.9054    -771.0777     306898.9    15.568443 
   59500    2024.6982   -775.97481    320440.07      15.5271 
   60000    1991.6821    -768.8666    298997.59    15.571961 
   60500    2084.6269   -797.84686    269244.97    15.684988 
   61000    2045.6475   -777.78012    310034.29    15.586611 
   61500    1856.4805   -784.04025    304550.11    15.605143 
   62000      1754.04   -775.44335    302270.76    15.593328 
   62500    2025.2776   -775.99313    297999.95    15.596697 
   63000    1975.1908   -781.14709    317947.44    15.546626 
   63500    1945.4118   -790.46242    299211.36    15.605178 
   64000    2217.9791   -756.21431    303407.52    15.535463 
   64500    2102.6341    -794.0926    297081.21    15.630958 
   65000    2020.0139   -787.75327    296515.42    15.619033 
   65500    1878.1456   -783.33418    282364.88    15.656874 
   66000    2043.6048   -764.46117    312129.48    15.510659 
   66500    2193.6284   -760.47951    286673.34    15.611905 
   67000    2253.4412    -774.9256    312848.02    15.581844 
   67500    2059.8142   -770.70547    302297.66    15.595936 
   68000    1852.0374   -790.13475    284861.64    15.646769 
   68500    2087.4305   -780.33647    312944.74    15.594795 
   69000    1848.4378    -774.7637    288414.34    15.621421 
   69500    1986.5949   -770.00868    298557.69    15.606057 
   70000    2110.2694   -762.21194    306052.72    15.560537 
   70500    1848.7054   -705.76485    300622.02    15.133442 
   71000    2018.4822   -653.88688    328391.67     14.72544 
   71500    1932.2192   -671.50304    285656.94    14.862891 
   72000    2106.4081   -669.26579    298302.66    14.819284 
   72500     1892.125   -656.55754    302550.89    14.835476 
   73000     2318.843   -690.90172    304535.88     14.90088 
   73500    1993.0019   -713.22622    297456.34    15.225821 
   74000    1993.8353   -703.59059    302960.05    15.188135 
   74500    1871.4753   -758.84136    286874.22     15.60129 
   75000    2046.6944   -721.13036    297829.62    15.319325 
   75500    1853.1057   -727.75504    294371.89     15.37883 
   76000    2301.9387   -699.91486    305619.56    15.123142 
   76500    2231.1822   -724.68208    294873.53    15.469783 
   77000     2020.728   -746.79942    293447.77    15.599004 
   77500    1876.4673   -710.35382    297804.87    15.244615 
   78000    2082.6619   -717.22933    297822.93    15.308951 
   78500    2132.6919    -687.3007    310153.32    15.149037 
   79000    2004.2924   -702.77047    307502.22     15.17846 
   79500    2080.2012   -741.18606    302337.64    15.546175 
   80000    1977.4208   -759.39174    305526.22     15.55088 
   80500    2085.4128    -700.5246    308907.18    15.149749 
   81000    1892.2961    -713.9472    297710.55    15.139047 
   81500    2013.9044    -714.2476    294424.35    15.240196 
   82000    2041.7744   -741.86757    296725.88    15.390077 
   82500    1953.3616   -721.27965    297333.52     15.27961 
   83000    1893.7427   -684.32568    301552.05    14.963696 
   83500    2013.1451   -670.52866    297841.29    14.886573 
   84000    2068.1143     -648.142     308309.5    14.817589 
   84500    2056.0597   -663.34438    292327.73    14.844983 
   85000    1914.7989   -654.80032    294380.81     14.84298 
   85500    1827.7718   -653.39532    291680.05    14.890793 
   86000    1945.8537   -669.06666    301578.97     15.02288 
   86500    1789.3187   -747.16723    304049.62    15.574891 
   87000     2136.504   -757.21655    293476.07    15.581462 
   87500    1993.2574   -779.32653    306035.12    15.606414 
   88000    1848.9469   -777.50947    303341.76    15.581888 
   88500    1922.1143   -748.38333    302168.92    15.526904 
   89000    2209.3435   -710.31084    312042.48    15.082511 
   89500    1939.2981   -761.60022    305149.18    15.508236 
   90000     1838.245   -765.27858    296810.53    15.598496 
   90500    2075.3245   -749.64759    289920.74      15.6737 
   91000    2118.1104   -734.73387    302896.67    15.494167 
   91500    2106.3197   -700.52608    307047.53    15.264248 
   92000    2074.9095    -708.9972    293200.63    15.384708 
   92500    1964.7189   -741.12945    296438.76    15.597444 
   93000    1889.7828   -694.49028    301577.54    15.192511 
   93500    1905.8127   -703.16599    298649.08    15.212249 
   94000    2130.4714   -716.72226     296057.9    15.265932 
   94500    2185.2963   -706.24071    297003.46    15.152352 
   95000    2014.5428   -676.65505    307867.19    15.052733 
   95500    1795.7371   -706.07923    293033.56    15.158433 
   96000    1888.0871   -706.70869     287203.3    15.197971 
   96500    1907.9582   -695.69033    308263.68    15.114435 
   97000     2040.021    -710.6335    293352.79    15.267032 
   97500    1813.9498   -706.21101    297197.63    15.316527 
   98000      1858.44   -736.94892    301644.74    15.426058 
   98500    2013.1976   -718.92272    298710.32    15.369418 
   99000    2145.2776   -666.53565    294107.09     14.88401 
   99500    2135.2458   -649.46598    287899.16    14.823459 
  100000    1819.4437   -652.93168     283980.9    14.863368 
  100500    1868.6521   -641.85962    296171.83    14.772468 
  101000    1936.2643   -639.50698    284460.67    14.816609 
  101500    1961.0703   -627.79753    329334.34    14.726838 
  102000    1901.4342   -630.91224    282818.89    14.836065 
  102500    2157.9073   -619.56094     289917.9    14.833832 
  103000    1996.4957   -619.95988    300469.68    14.757623 
  103500    1992.9401    -614.9156    306652.53    14.759654 
  104000    2094.7913   -614.41263    308536.25    14.769643 
  104500    1887.6755   -624.00041     298319.1    14.790156 
  105000    2101.6119   -621.87827    314604.63     14.75355 
  105500    2027.8284   -631.62441    280492.39    14.796012 
  106000    1904.1232    -610.4723    304494.03    14.777079 
  106500    1955.1398   -617.70306    297200.26    14.788093 
  107000    2042.7129    -630.7995    278140.77    14.784274 
  107500    1735.6259   -619.31237     282928.1    14.781977 
  108000    2122.0318   -613.25366    318980.14    14.766667 
  108500    2092.0027   -617.91231    315226.68    14.727369 
  109000    2174.2648   -615.52626    298448.34    14.770119 
  109500    1923.9191   -615.08954    331344.74    14.700822 
  110000    2170.5661   -630.63753    282135.98    14.804102 
  110500    1935.5678   -612.84065    291494.19    14.800575 
  111000    1974.5969   -621.36273    298015.46    14.754915 
  111500     1977.101   -617.97611    290691.28    14.807604 
  112000    1946.1107   -622.96788    322054.01       14.734 
  112500    1989.7994   -621.74505    275797.06    14.842654 
  113000    2217.6096   -630.44876    270795.02    14.892566 
  113500    1961.6156   -614.46965    311800.72     14.77081 
  114000    1873.9525   -608.19522    305549.84    14.779529 
  114500    1951.7569   -616.65165    289580.69    14.797103 
  115000    2073.4254    -609.4624    329758.78      14.7362 
  115500    2018.4715   -624.34511    286972.03    14.851869 
  116000    2002.0218   -618.75377     313931.3    14.759769 
  116500    1942.6303   -625.89623    303258.28    14.757902 
  117000    2023.5426   -632.42894    303142.25    14.748209 
  117500    1847.6743   -640.06248    301615.03    14.751164 
  118000    2004.8533   -626.86294    315056.72    14.742565 
  118500    1857.6308   -630.83547       296959    14.770558 
  119000    2035.2709   -649.40605    287369.68    14.800443 
  119500    2141.2568   -638.01557    304132.88    14.704427 
  120000    1948.1144   -641.19514    292653.99    14.747012 
  120500    2226.3949   -634.78833     321944.4    14.743445 
  121000     2225.199   -639.33053     311385.4     14.74564 
  121500    1969.5242   -633.14467    317503.39    14.758138 
  122000    2086.2851   -642.06282    299714.29    14.769124 
  122500    2107.0208    -630.7674    323970.26    14.672834 
  123000    2029.1591   -721.33378    280805.62    15.317683 
  123500    1797.3309   -696.01947    307930.88    15.152331 
  124000    1907.2262   -707.43142    284519.71    15.234251 
  124500     2059.994   -688.44421    306837.43    15.219794 
  125000    1936.0389   -696.49285    300341.61     15.26336 
  125500    2187.9886   -699.85653    294298.15     15.33462 
  126000    2077.2133   -704.61777    275437.93    15.395548 
  126500    2102.3269   -698.13665    279755.78    15.407352 
  127000    1851.7785   -688.29383    305606.62    15.240801 
  127500    1986.7816   -685.51135    308222.64     15.26327 
  128000     1979.021   -688.51968    295957.68    15.313636 
  128500    1884.3193   -685.76574     290914.9    15.348579 
  129000    1851.5641   -708.34239    289040.23    15.365356 
  129500    2131.8847    -682.7585    316606.33    15.189878 
  130000     2037.164   -695.08917    302877.74    15.256313 
  130500    2151.9481   -697.14275    290556.71    15.310692 
  131000    2065.9513   -679.94313    298563.02    15.329995 
  131500    2003.1861   -694.33712    292688.99    15.287327 
  132000    1894.2792    -693.3236    289047.46    15.309943 
  132500    1998.9509   -698.65077    286230.44    15.345792 
  133000    2113.9853   -688.35747    304229.28    15.269452 
  133500    1824.7779   -693.05373    289541.61    15.319258 
  134000    2068.3585   -693.66329    296936.08    15.276998 
  134500    1921.0078   -675.16511    311838.89    15.253874 
  135000    2137.4872   -687.43397    306269.34    15.205742 
  135500    1930.9515   -696.31049    286657.96     15.37249 
  136000    2192.1697   -693.70701    302330.96    15.247373 
  136500    1988.7696   -680.70496    303943.88    15.306441 
  137000    2026.6959   -688.72091    297604.87    15.278436 
  137500    2133.7658   -697.51646    303554.91    15.260131 
  138000    1981.9521   -689.47277    293038.76     15.25784 
  138500    1855.3177   -678.03034    308736.14    15.261235 
  139000      1890.84    -687.9842    297475.95     15.25848 
  139500    1991.6988   -706.11656     299098.2    15.272085 
  140000    1979.7991   -700.20113    293937.29     15.30546 
  140500    2155.4233   -693.21666    305552.49    15.235797 
  141000    2000.0641   -744.73949    305353.68    15.643089 
  141500    2014.2506   -700.81769    299880.72    15.360674 
  142000    2343.0727   -719.18064    304095.61    15.476699 
  142500    1858.1624   -757.19962    308245.83    15.762406 
  143000    1972.9228   -760.47272     285139.9    15.861964 
  143500    1839.9105   -759.11279    296969.35     15.85345 
  144000    1886.6418   -763.78252    281323.34    15.869978 
  144500      1959.17   -763.94836    280712.25     15.87069 
  145000    2224.7171    -764.0694    289548.77    15.860575 
  145500    1896.6905   -763.05473    310793.74    15.797715 
  146000    1902.7889   -756.70593    319051.99    15.745101 
  146500    2083.0934   -763.30571    312685.28    15.792397 
  147000    1980.1891    -765.1814    289050.41    15.855097 
  147500    1797.4173   -759.87777    290052.51    15.841549 
  148000    1971.1504   -766.24706    298154.12    15.813813 
  148500    1710.8457   -767.98674    288276.69    15.839602 
  149000    1961.1743   -766.00901    277710.73    15.861926 
  149500    1971.5903   -757.29216    327303.32    15.757483 
  150000    1999.7362   -748.25833    316334.24    15.816326 
  150500    1977.6021   -759.10729    310834.63    15.806234 
  151000    2109.6211   -759.67801    304508.55    15.836763 
  151500    1936.2843   -757.07879    314576.48    15.812929 
  152000     1907.161    -762.8768    300952.26    15.828948 
  152500    1924.2084   -769.07172    270496.81    15.875431 
  153000    1932.2488   -763.41604    285540.67    15.855607 
  153500    1876.0288   -759.83142    282477.98    15.832672 
  154000    1969.2282     -762.567    306635.12    15.822467 
  154500    2011.2654   -763.11192    319672.64    15.771522 
  155000    1993.9307   -757.33209     302190.2    15.836151 
  155500    1996.1956   -767.12081    267458.85    15.887338 
  156000    2103.5898   -757.40834    292053.72    15.849758 
  156500    2058.1384   -755.02149     305601.3    15.832726 
  157000     2065.424   -760.94655    305022.61    15.821701 
  157500    2099.6928   -757.93113    293320.19    15.852019 
  158000    1864.2169   -760.05962    300423.58    15.811978 
  158500    2064.5509   -767.66053     287279.1    15.820221 
  159000    1979.5407   -745.10135    298746.78    15.734283 
  159500    2024.2259   -762.71165    294089.47    15.753211 
  160000    1984.3621   -760.28528    290047.47    15.743089 
  160500    1966.5464   -758.40441    297253.71    15.775563 
  161000     2048.973   -758.04834    291033.72    15.784848 
  161500    1980.9157   -755.76667    297456.65    15.756464 
  162000    2011.5185   -752.87904    305610.97    15.729528 
  162500    1782.8688   -755.81529    291253.74    15.819181 
  163000     1963.807   -758.63824    310347.09    15.809882 
  163500    1984.3552   -763.50036    294907.63    15.844672 
  164000    1919.3186   -761.67482    282971.99    15.856206 
  164500    2007.0125   -754.91818    288044.43    15.834131 
  165000    1897.0576   -755.66394    292267.47    15.792857 
  165500     1874.938   -761.98181    297057.59    15.775527 
  166000    1926.0426   -763.55979    285913.12    15.816345 
  166500    2224.6119   -762.70766    300203.34    15.776602 
  167000    2052.3152   -753.93184    289644.29    15.758719 
  167500    2090.5104   -737.28256    311134.07    15.596424 
  168000    1971.7998   -754.63094    300225.91    15.721642 
  168500    2140.2312    -762.4826    308110.02     15.74209 
  169000    2086.9442   -762.92138    291879.27    15.746986 
  169500    1929.6792   -752.18468    296461.29    15.716599 
  170000    2257.6613   -755.87361    294445.47    15.746149 
  170500    1943.6407    -740.7949    307572.86    15.557044 
  171000    2064.7039   -747.36129     311145.7    15.556726 
  171500    1940.2014   -752.27746    288666.63    15.715286 
  172000    2079.4373   -744.06304    304102.24    15.600813 
  172500    2012.0052   -754.60146    296191.59    15.675372 
  173000    1909.2827   -754.61494    298025.51    15.676138 
  173500    2252.3968   -757.51066    309867.63    15.600762 
  174000     1954.977   -759.25768     289878.6    15.711234 
  174500    2038.0613   -739.24184    309814.72     15.49492 
  175000    2053.1778   -731.97912    304391.13    15.507257 
  175500    2093.6695   -753.53294    302621.47    15.643943 
  176000    1898.7198   -753.67161    302866.13    15.638803 
  176500    2000.1255   -741.46585    308128.53    15.486031 
  177000    2020.0563   -737.69696    303859.22     15.42643 
  177500     2116.596   -687.53626    297463.23    15.055712 
  178000    1887.4178   -686.92104    305014.38    14.998479 
  178500    1842.0478   -683.13028    302120.87    15.068433 
  179000    2034.7609   -686.01563     305001.5    14.998366 
  179500    1906.9398   -738.47608    295838.96    15.189611 
  180000    1908.3162   -744.65252     299043.6    15.204469 
  180500    1871.7738   -750.46425    303540.97    15.147503 
  181000    1761.2068   -756.99628    294570.58     15.24074 
  181500    2033.7189   -753.02588    296836.49     15.33779 
  182000    2013.8858   -752.12814     303965.2    15.475209 
  182500    2178.0134   -761.79837    298091.05    15.428652 
  183000    1933.9706   -642.12456    301837.84    14.723889 
  183500    1986.9798   -637.05794    311234.22    14.705333 
  184000    2084.4626   -647.23074     316581.4     14.66851 
  184500    2116.0674   -636.12487    334380.22    14.639264 
  185000    1952.3848   -699.26799    306484.62    15.067376 
  185500    1900.0319   -684.38642    303152.28     15.07438 
  186000    2092.5368   -706.69758    307308.07    15.070149 
  186500    1889.4815    -722.7595    295255.71     15.21858 
  187000    2009.7283   -775.32894    305459.35    15.617196 
  187500    1947.6126   -683.56023    300797.41    14.970029 
  188000     1964.108   -707.06543    287186.83     15.14609 
  188500    2103.0334   -684.76405    300424.63    15.008772 
  189000    2165.2628   -712.89456     299017.7     15.11863 
  189500    2091.4416   -686.43824    303882.53    15.092515 
  190000    1804.8384   -689.03286    297527.49    15.036192 
  190500    1924.2798   -640.54152    302045.92    14.779941 
  191000    2095.7197   -656.11874    290245.33    14.791221 
  191500    1874.5752   -650.07947    297544.23     14.74339 
  192000     1947.387   -664.12307    297225.84    14.741413 
  192500    1849.8994   -669.77471    291498.52    14.768985 
  193000    2074.7116    -654.2094    293895.64    14.731978 
  193500    2057.0878   -637.32856    312628.17    14.679386 
  194000    2058.4089   -653.08604    292414.23    14.797174 
  194500    1997.9729   -637.45009    317907.81    14.697638 
  195000    1902.5799   -642.42666    297036.41    14.729175 
  195500    2149.2266   -671.78683     293495.5    14.809634 
  196000    2080.2677   -646.87531    297939.28    14.848057 
  196500    1900.9324   -659.37131     309068.1    14.919289 
  197000     1980.732   -759.40371    281857.96    15.735418 
  197500    1950.2316   -746.62582     303095.2    15.621544 
  198000    1999.1531   -758.81429    302557.85    15.571454 
  198500    1971.7571    -760.1101    305330.14    15.578659 
  199000    1889.8026   -758.10515    300146.32    15.658429 
  199500    1989.3079   -762.47161    298046.13    15.691724 
  200000    2069.4287   -721.93453    307048.01    15.112573 
  200500    2087.0081   -714.77939    298645.41    15.118589 
  201000    1976.2287   -647.59933    297596.44    14.732345 
  201500    1887.9376   -669.14402    291634.81    14.931171 
  202000    2139.6217   -694.66677    307789.84    15.110171 
  202500    1883.2214   -712.57031    291150.14    15.170072 
  203000    1891.6319   -718.47387    291893.69    15.192895 
  203500    1898.0664   -696.60717    301735.19    15.059949 
  204000    1970.4372   -708.34563    294232.13    15.210169 
  204500    2023.7854   -705.24356    292324.19    15.463992 
  205000    2166.6253   -677.48212    315716.73    15.137319 
  205500     1972.425   -742.04634    300218.81    15.548649 
  206000    1917.4984   -748.29076    298049.04    15.616967 
  206500    2194.3147   -758.33928    290642.55    15.671456 
  207000    1998.8654   -672.61473    309922.68    15.015179 
  207500    1840.1944   -638.24387     300676.5     14.76622 
  208000    2011.1493   -628.71025    316942.38    14.696918 
  208500    2044.5331   -703.46554    301163.27    15.144166 
  209000    2054.5403   -733.35696    301734.65    15.419035 
  209500    1967.8989   -705.49654     297649.7    15.249637 
  210000    1863.8588   -710.19615     291823.1    15.225679 
  210500    1911.2257   -702.75267     297275.5    15.167525 
  211000    2153.3488   -669.93147    300995.54     14.95186 
  211500    2076.6926   -644.30679     300816.9    14.772154 
  212000    1977.0985   -645.59161     307821.3    14.700088 
  212500    1865.8055   -648.97284     288522.7    14.779569 
  213000    1983.2579   -651.23504    291771.78    14.718827 
  213500    1911.2443   -663.37928    284901.46    14.798873 
  214000    2018.0371   -720.36616    297258.34    15.278763 
  214500    1935.6476   -712.71818    295249.18    15.251116 
  215000    1903.3202    -716.3216    291797.48     15.23656 
  215500    1909.2646   -698.94954    297559.55    15.224462 
  216000    1954.8539   -704.86621    294286.22    15.185441 
  216500    1985.7319   -707.66908    296338.05    15.185871 
  217000    2053.6483   -638.92425    300353.24    14.700348 
  217500    2038.8593   -642.34851    299486.19    14.757436 
  218000    2028.0346   -655.44588    297665.29    14.820149 
  218500    2019.9792   -686.65103    299626.45    14.976902 
  219000    1808.7755    -661.3851    296988.41    14.844527 
  219500    1798.0659    -685.3196    288952.25    14.971742 
  220000    1926.1581   -648.91095    289308.15    14.753508 
  220500    2098.5438   -691.70938    309705.53    15.064847 
  221000    2071.3828    -705.2502    292438.47    15.184175 
  221500    1923.1254   -706.56981    292435.29     15.19589 
  222000    2052.0283   -688.52324    303794.78     15.07448 
  222500    1920.2895   -621.94532    302101.57    14.661957 
  223000    1918.2902   -631.78741    306984.52    14.686585 
  223500     2166.665   -654.31067    297357.58    14.796827 
  224000     1975.706   -685.79541    311472.51    14.916124 
  224500     2075.909   -695.14474    301247.37    14.980994 
  225000    1937.4328    -668.8892    300754.56    14.923148 
  225500    2300.1467   -684.23211    294332.89    14.981538 
  226000    2065.3533   -694.50801    307044.42    15.076702 
  226500    2011.3756   -752.26638    300555.33    15.557096 
  227000    2128.5873   -743.68085    305184.62    15.533186 
  227500    2008.1254   -677.86684    299980.29    15.140277 
  228000    2199.4913   -738.31368    304347.84    15.460267 
  228500    2179.5592   -678.74405    315570.58    15.072655 
  229000    2116.0678   -694.73594    305023.52    15.125649 
  229500    2111.2463   -684.36002    302857.04    15.215343 
  230000    2048.5724   -714.06445    295785.21    15.327376 
  230500    1956.6124   -668.07825    302103.83    14.980676 
  231000    1861.7464   -753.77171     292807.1    15.759628 
  231500    1871.0517    -767.0011    301804.76    15.765465 
  232000    2047.9262   -751.40908    299735.91    15.644039 
  232500    2022.0399   -716.82048    298073.83     15.39477 
  233000    1849.2371   -675.55426    300633.35    15.174053 
  233500    2150.2244   -675.69403     296093.5    15.136878 
  234000    1987.6522   -664.60812    298547.22    15.018882 
  234500    2112.0556    -657.0732    312339.68    15.071143 
  235000    1753.1756   -655.49794    297910.08    15.233657 
  235500    1821.2073    -692.5306    292455.52    15.482973 
  236000    2051.2147   -683.54143    297865.79    15.524791 
  236500    1976.1211   -672.83321    294822.94    15.342713 
  237000     1896.429   -681.36679    302587.21    15.449472 
  237500    2015.7318   -658.93551    300484.46    15.327472 
  238000    2271.2434   -674.45281    299075.11    15.386302 
  238500     2023.839   -667.29507    301613.59    15.233431 
  239000     1838.395   -678.64693    300523.58    15.360643 
  239500    2169.6196   -688.45928    300934.05    15.449398 
  240000    2029.4933   -695.50298    296274.87    15.537999 
  240500    2201.6339   -665.46541    302388.04    15.235406 
  241000    1859.1435   -674.08357    303451.73     15.28448 
  241500    2059.0955   -640.49518    303683.54    15.151399 
  242000    2067.0996   -644.20483    307743.34    15.139543 
  242500    2128.7116   -693.53829    306648.53    15.449258 
  243000    1990.3057   -706.83657    296102.23    15.425632 
  243500    1900.1005   -680.45665    299849.44    15.320618 
  244000    2135.2711   -716.12772    298894.54    15.526269 
  244500    2103.9518     -655.892    303767.86    15.211884 
  245000    2208.8987    -654.9407    294616.71    15.141987 
  245500    2126.4417    -736.5017    302063.89    15.614168 
  246000    2014.6862   -755.95384    284959.14    15.859015 
  246500     1927.941    -726.7442    293737.44    15.654662 
  247000    2024.1777   -691.48344    307488.52    15.394999 
  247500    2190.6627    -700.8315    302923.93    15.480339 
  248000    1898.1874   -687.18369    300073.53    15.466613 
  248500    2079.2806   -682.85116    294624.17    15.363778 
  249000    1937.4535   -672.06252    291739.37    15.265638 
  249500    1991.8096   -653.21128       299441    15.287431 
  250000    1941.5041   -650.86164    300493.18     15.14779 
  250500    1886.2422    -714.3908    284176.02    15.701005 
  251000    1917.3644   -670.82919     298607.5    15.323655 
  251500    2204.4145   -665.78319    297785.29    15.236172 
  252000    2036.6118   -688.11495    305331.22    15.448353 
  252500    2141.8597   -685.10793     304436.3    15.518472 
  253000    1871.2027   -682.14611    302112.79    15.458861 
  253500    2002.7825   -690.35569     305522.4    15.498635 
  254000    2068.7781    -644.0472    306239.99    15.118629 
  254500    1966.8577   -669.58586    293213.58    15.292404 
  255000    2044.9898     -625.185    298225.35    14.947335 
  255500    2060.2418   -696.38621    294075.06    15.592594 
  256000    2125.8996   -643.25055    308951.25    15.074758 
  256500    1967.9036   -654.56077    298002.35    15.127289 
  257000    2085.9234    -673.9141    297836.07    15.197627 
  257500    1956.7177   -615.72092    280136.97     14.81043 
  258000    2190.8456   -591.69927    303786.61    14.743437 
  258500    2035.6565   -672.10041    300755.84    15.288872 
  259000    1947.7337   -700.87541    293866.24    15.602767 
  259500    1967.3332   -693.69054    290995.97    15.601329 
  260000    1789.6683   -701.86322    293677.91    15.576041 
  260500    1943.1872   -716.63895    299244.05    15.573961 
  261000    2011.7403   -701.36603    298637.43    15.561292 
  261500    1892.9364   -632.87667    311660.46    15.126415 
  262000     2013.792   -664.83803    293238.78    15.218016 
  262500    1938.1363   -628.40263       310683    14.986897 
  263000    1847.5245   -708.53746    281298.81    15.660191 
  263500      1903.58   -657.43506    289458.13    15.125805 
  264000    2026.3798   -658.30888    298644.68    15.186504 
  264500    2141.9548   -673.42499    291536.25    15.204871 
  265000    2022.8535   -597.08564    279803.53    14.763863 
  265500    2130.2735   -595.87167    293648.66    14.730847 
  266000    1969.3765   -586.50142    329337.19    14.687485 
  266500    1967.0715   -598.67187    303598.88    14.709761 
  267000    2022.5646   -601.64601    308654.12    14.722812 
  267500    2075.1093   -604.34809    290193.87     14.71552 
  268000    1981.2711   -584.52562    326521.69    14.690746 
  268500    2034.5639   -664.47067    296891.22    15.281982 
  269000     2161.217   -706.94611    299027.61    15.582374 
  269500    2030.2713   -701.75525    301179.85    15.582553 
  270000    2022.8461   -720.84728    292208.77    15.699283 
  270500    2056.7933   -653.24296     297962.4    15.172069 
  271000    2064.4776   -633.67083     305699.2     15.09046 
  271500    1995.2816    -645.2389    300311.38    15.216436 
  272000    1955.8923   -587.62545    313956.87    14.690323 
  272500    2031.0939   -603.08898    295515.11    14.713082 
  273000    2093.0256   -603.58436    304539.01    14.712376 
  273500    1755.6138   -615.75676    281931.14    14.785806 
  274000    2077.6286   -635.25951    300094.18    14.898884 
  274500    1933.6676   -695.35789     295450.1     15.60366 
  275000    1970.1869   -682.13897    307379.82    15.478045 
  275500    1904.3387   -701.75946    299556.98    15.569403 
  276000    2087.4162   -710.51281    300038.35    15.580726 
  276500    1995.9586   -697.06117    303749.65    15.524124 
  277000    1887.7733   -696.06484    301198.02    15.493028 
  277500    2058.1894   -686.42561    307273.32    15.475351 
  278000     2053.452   -685.51629    303381.76    15.515473 
  278500    2060.3855   -646.92786    304660.78     15.10748 
  279000     1839.186   -639.36356    308073.39    15.109772 
  279500     2008.563   -656.72469    298574.76    15.054592 
  280000    2033.4143   -643.95217    306171.51    14.944337 
  280500    2053.0165   -607.96871    300564.38    14.669557 
  281000    1945.6057   -607.38886    304645.31    14.673866 
  281500     2120.817    -649.6793    300583.78    15.084751 
  282000    1995.8617   -744.82359    306272.39    15.706663 
  282500    1864.0723   -759.95739    302512.56    15.807643 
  283000    1975.0869   -760.21101    287571.85    15.846943 
  283500    2128.1186   -759.48112    291409.57    15.859679 
  284000     1929.227   -748.11999    301552.76     15.62316 
  284500    1812.4714   -699.16408    296382.31    15.449276 
  285000    2037.7142   -731.07795    291281.09    15.670824 
  285500    2073.7434   -691.82841    303386.92    15.383041 
  286000    2081.6819    -695.1259    299430.46    15.519168 
  286500      2086.95   -714.89608    296888.12    15.595717 
  287000    1973.9308   -635.30628    305771.55    15.064928 
  287500    1964.4119       -650.2    302457.23    15.063119 
  288000    2181.1549   -639.81296    305463.34     15.01684 
  288500    1954.1713   -649.40419    294074.57    15.199221 
  289000    1872.5233   -634.57684    314998.74    15.108654 
  289500    2012.3871   -642.24348    298364.34    15.203223 
  290000    1947.7816   -652.32628    293646.29    15.117397 
  290500    2006.6623   -665.95827    293368.48     15.25147 
  291000    1835.7331   -657.09597    296307.97       15.044 
  291500    1909.6274   -685.33646     298753.6    15.509683 
  292000    1907.5278   -697.04243    301042.32    15.562839 
  292500    2033.1438   -686.19244    299382.64    15.584074 
  293000     1977.717   -689.72445    306204.36    15.505045 
  293500    2194.3064   -703.23162    301723.44    15.593188 
  294000    1896.4568   -699.56213    302426.58    15.573296 
  294500    1928.7417   -696.86036     302574.6    15.468845 
  295000    1969.0657   -676.83763    299392.72    15.292161 
  295500    2091.4873   -606.09554    295510.43    14.753406 
  296000    2320.5128   -617.31155    310093.65    14.853921 
  296500    2027.7337   -689.90816    306003.22    15.482286 
  297000    2071.9438   -698.60789    304269.01    15.567569 
  297500    1820.1515   -706.50939     299934.7    15.573732 
  298000    2161.2474   -708.97424    294553.42     15.67348 
  298500    2185.1911   -708.83954    303393.99    15.563775 
  299000     2184.144   -656.52111    290947.35    15.246035 
  299500    2182.4147   -641.25687    303760.49    15.142878 
  300000    1861.9108   -626.08476    307446.49    15.145829 
  300500    2090.0539   -642.48904    301585.88    15.136127 
  301000    1847.0478   -643.87665    296361.98    15.167517 
  301500    2091.3106   -627.32106     310474.6    15.026305 
  302000     2238.312   -651.96644    293506.77    15.188747 
  302500    1926.4795   -638.79932    294600.67    15.200147 
  303000    1974.2513   -663.74713    302482.32    15.136225 
  303500    2070.0435   -643.51354    302771.49    15.093266 
  304000    1940.5826   -640.83465    307043.08    15.097157 
  304500    2019.1179   -739.18606    294913.08    15.816972 
  305000    1967.0227   -656.90844    294728.12    15.199977 
  305500    1829.8289   -662.02986    294686.93    15.195659 
  306000    2149.4248   -656.56608    290028.82    15.193331 
  306500    1967.7859   -651.04318    300768.08     15.11235 
  307000    1962.6513   -642.24448    303155.58    15.048042 
  307500    2038.5559     -656.279    297732.82     15.12633 
  308000    2142.7824   -648.77244    305373.81    15.047848 
  308500    2028.4322   -636.51071    304122.64    14.920075 
  309000    1972.7478   -583.85444    303727.47    14.669937 
  309500    2031.0066   -585.00954    300461.13    14.718158 
  310000    1855.7948   -599.48392    270622.39    14.769615 
  310500    2073.1172   -590.75629    284614.11    14.757915 
  311000    2037.0289   -587.70503    294448.86    14.722343 
  311500    2000.0312   -588.09093    290818.32    14.793276 
  312000    2145.5497   -584.23563    306944.75    14.720565 
  312500    1940.2628   -598.37577     282538.2    14.787156 
  313000    2068.6991   -585.55992    299219.72    14.705926 
  313500    2193.1114   -596.22741    296587.75    14.734432 
  314000     2148.167   -593.28922    287050.87      14.7498 
  314500    2105.5365   -616.42005    292656.64      14.8704 
  315000    1856.5437   -717.94572     296717.3    15.493095 
  315500    1967.3816   -737.41732    299109.75    15.473657 
  316000    1962.3454   -735.63464    302521.89    15.633296 
  316500    2066.4344   -683.59264    302790.95    15.335368 
  317000    1815.9856   -692.77133       294818    15.353332 
  317500    1901.7036   -698.32212     301551.2    15.349415 
  318000    2046.9954   -769.92435    278858.67    15.890086 
  318500    2082.9573   -699.09963    291162.83    15.410363 
  319000    1842.6352   -631.39221    308520.65    15.033369 
  319500    2104.3278   -645.29888    290021.47    15.165764 
  320000    1956.6471    -645.2799    298424.59    15.101162 
  320500    1997.3629   -656.94609    292293.29    15.175148 
  321000    2016.2995   -647.36488    293514.29    15.161932 
  321500     2135.466   -664.58755    301178.48    15.306827 
  322000    2038.5414   -687.38486    305217.08    15.520832 
  322500    2127.8302   -703.12187    299307.18    15.644575 
  323000    2027.7165   -722.67108    300551.97     15.61074 
  323500    2036.8136   -708.72305    302297.24     15.63721 
  324000    2146.1659   -669.13973     298319.5    15.420703 
  324500    2089.9987   -644.14231    295735.52    15.157181 
  325000    1802.5941    -644.6555    297045.92    15.146976 
  325500    2109.1141   -628.03685    308316.36     14.95316 
  326000     1898.281   -641.21993    307620.37    15.058117 
  326500    2126.5122   -755.95492    295915.89    15.865622 
  327000    1959.5913   -755.49184     304193.6    15.759971 
  327500    1903.7412   -744.32792    304582.39    15.574516 
  328000    1964.5073   -730.36994     302532.9    15.352309 
  328500    2173.6461   -731.40462    299977.94    15.427399 
  329000    1931.6193   -763.71166     266741.7    15.928205 
  329500    1990.1752   -714.99267    304878.47    15.309458 
  330000    1881.5496   -755.39791    302583.23    15.805178 
  330500    2031.1122   -763.77279    305793.26    15.743252 
  331000    2042.7048   -761.36877    296130.41    15.867544 
  331500    1888.4395   -762.38068    304390.68    15.783445 
  332000    2116.4922   -760.98924    308329.03     15.83264 
  332500    1987.2518   -767.27744    299851.86    15.845519 
  333000    1821.3843    -767.2295    288794.21    15.862665 
  333500    1841.1623   -756.96752    298149.57    15.811981 
  334000    2030.7824   -746.20505    303375.36    15.712405 
  334500    1886.0832   -644.06095    302338.95    15.058994 
  335000    1950.2668   -667.25063    292219.84    15.183951 
  335500    2014.2634   -675.97846    296742.41    15.298087 
  336000    2015.7069   -697.36193    297430.66    15.411675 
  336500    1781.7694   -664.41532    301530.22    15.025737 
  337000    2067.3737   -720.12084    297219.63    15.547351 
  337500    2010.4283   -751.57876    307140.81    15.710746 
  338000    1999.6935   -704.04036    296328.32    15.426074 
  338500    2043.7113   -701.71391    302005.06    15.183885 
  339000    1950.4622   -752.98553    290319.64    15.775326 
  339500    1843.5767   -715.67783     295933.7    15.271337 
  340000    2074.1967   -720.08122    299783.51    15.441577 
  340500    1948.9383   -720.87756     298179.4    15.392197 
  341000    1885.2867   -702.40693    301126.58     15.23435 
  341500    1998.3532   -759.31666       304683    15.748346 
  342000    2292.4015   -774.35373    300447.26    15.779136 
  342500    2047.8789   -763.05445    300335.61    15.701296 
  343000    2156.9018   -743.98267    303262.86     15.67797 
  343500    2112.8352   -767.10113    278044.95    15.882215 
  344000    2062.9247   -673.01972    302896.94    15.085046 
  344500    1972.2653   -729.14362    300022.47    15.458423 
  345000    1960.7301   -734.18334       297465    15.576088 
  345500    1877.5313   -755.32833    296096.68    15.683774 
  346000    2011.6405   -760.99804    299783.59    15.588038 
  346500    2037.1467    -735.6268    298324.49    15.281094 
  347000    1818.1218   -733.47756    298644.33    15.340898 
  347500    1965.3978   -726.80312    294343.06    15.248842 
  348000    1923.7577    -636.8174    306741.74    14.635874 
  348500    2003.6858    -642.1404    303593.56    14.691757 
  349000    1949.0214   -642.51436    303831.77     14.64777 
  349500    1786.7358   -714.65876    294394.49    15.135546 
  350000    1932.5695   -786.68012    302753.12    15.708256 
  350500    1875.6675   -799.72873    297047.79    15.787489 
  351000    2038.6962   -778.23085    290029.66    15.409727 
  351500     1848.062    -643.7168    301987.62    14.649235 
  352000    2042.0971   -679.57716    294986.85    14.772015 
  352500    1997.1447   -698.67584    297132.22    14.835912 
  353000    2069.5089   -708.91082    300389.45    14.858452 
  353500    1975.6616   -710.29038    303914.29    14.958561 
  354000    2069.8259    -677.0435    295537.49    14.774391 
  354500     1889.214   -766.90205    288265.81    15.469746 
  355000    1770.2751   -759.35704    300281.62    15.699102 
  355500    1845.1579   -710.02579    297205.85    15.387844 
  356000    2023.5425    -703.0978       301944    15.279547 
  356500    1842.6287   -731.14244    298358.88    15.518111 
  357000    2012.0813   -716.22777    298601.14    15.192367 
  357500    1877.1095    -689.8038    304508.49    15.020326 
  358000    2013.7362   -716.47402    299225.18    15.187149 
  358500    1894.2088   -731.84668    303180.63    15.385325 
  359000    1935.5456   -766.65976    283814.16    15.717838 
  359500    1911.8191   -769.13253    297881.22    15.808358 
  360000     1949.497   -747.82205    303289.04    15.672009 
  360500     2073.118   -763.72001    280075.58    15.822707 
  361000    2170.7787   -764.27602    291378.33    15.743795 
  361500    2024.7996   -698.43809    300591.07    15.186805 
  362000    2094.4237   -725.17115    298883.38    15.506275 
  362500    2038.9635   -742.99988    296356.53    15.545551 
  363000    2029.1693   -772.99875    292194.17    15.724186 
  363500    2040.7952   -760.15538    294534.47    15.746395 
  364000    2000.4484   -767.78087    311515.64    15.691658 
  364500    1942.7327   -724.71123    296411.02    15.358017 
  365000    1894.9935   -626.43165    318918.82    14.635236 
  365500    1927.7385   -654.43971    299554.35    14.767611 
  366000    1796.4071   -693.80952    296383.51    14.950392 
  366500    1957.9442   -706.37342    293623.98    15.058596 
  367000    1913.4211   -682.75469    303034.98    14.845343 
  367500    2094.3432   -731.58257    299177.78    15.201935 
  368000    1696.6898    -776.2505    307027.31    15.651534 
  368500    2059.9499   -745.02898    303344.52    15.295753 
  369000    1948.5681   -709.38108    290606.51    15.094527 
  369500    1885.6789   -705.46337    299246.21    15.220938 
  370000    1896.3382   -692.49664    303055.12    15.113943 
  370500    1890.1573   -703.33249    300443.34    15.170218 
  371000    1747.0502   -768.38877    307415.02    15.749597 
  371500     2067.116    -779.6038    293876.46    15.771421 
  372000    1860.3416   -752.77475    292079.75    15.533065 
  372500    1830.8291   -641.26201    304818.51    14.631824 
  373000    1915.5593   -646.22606    291887.68    14.744027 
  373500      1899.48   -657.60029    290842.31    14.832373 
  374000    1858.7684   -753.88509    296614.21    15.515576 
  374500    1962.2905   -746.17352    302561.31    15.338183 
  375000    1992.2664   -748.09983    300226.78    15.477381 
  375500    2243.1503   -734.04209    304439.13    15.423132 
  376000    2054.8865   -750.62102    297682.77     15.68367 
  376500    2055.4488   -670.91646    301361.07    15.062009 
  377000    2159.7038   -697.11407    297376.58    15.179227 
  377500    2083.5206   -764.39013    305922.74    15.726314 
  378000    2104.4697   -688.32316    307649.14    15.334843 
  378500    1887.8411   -709.02993    300239.28    15.533297 
  379000    2030.5552   -714.94902    297884.21    15.448854 
  379500    2008.4624   -710.60656    300900.12    15.158582 
  380000    1876.0539   -664.94993    292899.92    14.935403 
  380500    2016.8873   -613.00277    307462.23    14.635859 
  381000    2062.0205   -638.56977       300253    14.784758 
  381500    1950.5235   -598.13928    312381.59    14.629698 
  382000    2060.6584   -649.42487    304930.79    14.834522 
  382500    2164.4657    -616.1542    302457.76    14.678327 
  383000    2006.4939   -667.01189    295512.67     14.92679 
  383500    1967.6479   -622.34263    284541.37    14.661555 
  384000    1869.0196    -605.8015    300980.28    14.618813 
  384500    2061.1336   -614.20607    301166.74    14.647514 
  385000    2239.3178   -618.44775    296076.13    14.757304 
  385500    2005.6795   -653.59118    286977.74    14.904682 
  386000    2115.3172   -630.85895    293351.68    14.790423 
  386500    2289.5265   -696.87046    302095.72    15.266694 
  387000    1952.5733   -761.08833     282956.5    15.937578 
  387500    2148.8315   -703.51998    302162.56    15.573289 
  388000    1931.3154   -704.67141    303936.01    15.593363 
  388500    2033.7054    -701.4552    292718.48    15.642373 
  389000     1967.569   -699.53496    295002.89    15.665037 
  389500    2090.9125   -712.39613    299729.87    15.616387 
  390000    2162.6831   -700.75903    301425.76    15.634035 
  390500    2016.4934   -704.02171    301452.54    15.606709 
  391000    2065.9777   -695.93219    298823.02    15.573482 
  391500    2323.1769   -670.87969    306219.34    15.426776 
  392000    1872.8854    -599.1436    294763.38    14.806913 
  392500    1928.8926   -659.31817    295343.68    15.208571 
  393000    1931.7152   -653.77463    294126.94    15.098971 
  393500    1830.8922   -634.96751    292083.23     15.12491 
  394000    1871.8312   -621.76414    313944.72     15.08235 
  394500    1959.3953   -645.05698    287331.43    15.199532 
  395000    2073.3675   -627.81523    313638.89    15.046096 
  395500    2002.8999   -638.70444    301011.27    15.069164 
  396000    2010.7585   -627.71171    307111.44    14.924738 
  396500    1903.8064    -637.0045    303152.03    14.994151 
  397000    1972.5551   -743.87892    289499.32    15.699836 
  397500    2043.6473   -689.76383    303054.74    15.328728 
  398000    1861.8274   -710.07231    300106.08    15.523857 
  398500    1968.5482   -713.00357    295653.27    15.620775 
  399000    2086.2259   -635.59057    309777.37    15.074988 
  399500    1986.5066   -649.52885    298060.44    15.083849 
  400000     1971.037   -657.61579    298292.28    15.167485 
  400500     1865.835   -627.84957    306441.03    14.919084 
  401000    2094.4178    -621.5199    291749.57    14.879172 
  401500    1977.9481   -673.60387    292463.65    15.196951 
  402000    1859.7429   -644.41165    298705.65    15.113312 
  402500    1913.8111   -626.18783    308377.97    15.005547 
  403000    2020.5701   -632.43198    303864.87    15.136572 
  403500    2014.6629   -649.37841    299994.03    15.156676 
  404000    2118.3888   -623.92681    315940.75    15.095126 
  404500    2066.4176   -642.93409    300688.01    15.139134 
  405000    2056.7708   -636.98642    306463.65    15.063301 
  405500    1905.2311   -670.02948    296569.49    15.225771 
  406000    2000.3203   -614.40453    300428.52    14.844655 
  406500    1880.3952   -710.58485    294481.29    15.596756 
  407000     1936.993   -688.23789    301355.12    15.415958 
  407500    2127.0289   -691.09262    304068.49    15.404069 
  408000    2078.1575   -676.52498    303042.49    15.327579 
  408500    2008.2166   -696.81785    303470.94    15.522487 
  409000    1922.8079   -719.35162    296677.01    15.674886 
  409500    2032.1666   -758.98091    289140.83    15.918251 
  410000    2097.6378   -741.17636    293426.01    15.832759 
  410500     1895.874   -703.38892    300086.12    15.529105 
  411000    1865.6484   -712.19771       301272    15.540873 
  411500    1724.3461   -698.80115    293149.41    15.573146 
  412000    1974.6118   -721.37861    295112.36    15.683758 
  412500    1964.9409   -708.56341    304105.01    15.521738 
  413000    1953.8763   -719.33858    304218.99    15.527422 
  413500    1954.5627   -706.50494    294726.73     15.56445 
  414000    1934.9768   -697.73117    289383.69    15.575854 
  414500    2124.9489    -698.0118    297572.98    15.571127 
  415000    2027.4261   -704.09066    307908.69    15.546693 
  415500     2064.304   -709.82613    294884.46    15.632617 
  416000    1942.6103    -720.9081    291612.08    15.708961 
  416500     1957.819   -700.81228    292889.39    15.552819 
  417000    2123.7567   -704.38079    303455.37    15.570534 
  417500    2049.8627   -757.66822     285858.8    15.947219 
  418000    1933.8558   -758.71083    289312.57    15.945304 
  418500    2111.5614    -744.2454    306803.15    15.804735 
  419000    1971.4019   -753.24869    307916.95    15.870758 
  419500    1983.7372   -740.74311    309794.01    15.791731 
  420000    2011.7587   -751.24703    310266.83    15.794934 
  420500    1924.7083   -753.84602    310134.23    15.839052 
  421000    1953.1615   -758.35084    306569.43    15.831452 
  421500    2024.4925   -757.95804       309146     15.78859 
  422000     2012.817      -762.57    306686.81    15.846124 
  422500    2119.4738   -757.81756    301022.93    15.847519 
  423000    2064.3181   -764.41328    297185.67    15.866819 
  423500    1942.4118   -761.28133    294585.15    15.891849 
  424000    1957.5909   -744.00365    303412.52    15.722417 
  424500    1861.6604   -755.25041    307059.62    15.864058 
  425000     2057.095   -765.45649    304566.01    15.902834 
  425500    1961.5721   -754.35852    291880.33    15.883022 
  426000    2086.2597   -764.28827    290118.38    15.948168 
  426500    2138.0133   -761.71156    293244.29    15.910581 
  427000    1975.7167   -760.06661     302298.2     15.86217 
  427500    2025.3861   -761.18366    305941.97    15.853027 
  428000    1850.3629   -762.76263    301293.15    15.865032 
  428500    1896.1829   -761.61658    305330.94    15.776903 
  429000    1797.7006   -747.48584    306920.29    15.768369 
  429500    1782.5429   -720.76558    289013.76    15.644376 
  430000    1938.3791   -621.29474    307316.72    14.882816 
  430500    2053.0451   -668.55222    287990.85    15.113313 
  431000    1964.3745   -660.66105    294195.09    15.174817 
  431500    2128.3792   -671.21763    292573.87      15.3109 
  432000    2199.0531   -698.71099    299022.28    15.487247 
  432500     1870.161   -685.60808     303287.9    15.358304 
  433000    1949.0658   -596.68574    280600.16    14.778998 
  433500    1996.0972    -586.9178    312560.66    14.699259 
  434000    2160.7183    -636.3178    303721.22    14.920603 
  434500    1947.7295   -632.91959    303708.99    14.985065 
  435000    2049.6224   -639.89178    304033.07    14.968826 
  435500    2250.5618   -678.24927    302145.48    15.274875 
  436000    1982.9937    -692.6555    302876.69    15.359059 
  436500    2097.7864     -706.639       305992    15.309614 
  437000    1951.3016   -719.96067    295498.49    15.532583 
  437500    2032.3856   -695.33908    295978.72    15.488542 
  438000    2150.0404   -697.19716    300618.17    15.217404 
  438500    2034.7129   -733.68511    295897.31    15.321241 
  439000    2134.7861   -726.85118    299052.77    15.087421 
  439500    2033.0387   -661.33655    294279.32    14.682226 
  440000    1948.0531   -647.12542    295119.15    14.736208 
  440500     2056.198   -698.46668     299917.4    15.090923 
  441000    1924.4843   -776.01157     310875.4    15.779356 
  441500      2164.59   -770.52221    316376.18    15.741025 
  442000    1806.7897   -756.87652    295238.49    15.604325 
  442500    1956.2384   -708.38432    296979.57    15.191476 
  443000    1933.3603   -706.01538    298528.52    15.131548 
  443500    2060.2664    -615.7745    313128.39    14.683122 
  444000    1966.3259   -671.63179    297810.35    14.966626 
  444500    1968.6647   -739.04291    299709.63    15.500989 
  445000    2022.2906   -744.01918    298113.87     15.54285 
  445500    1857.8379   -631.26143    303382.82    14.744315 
  446000    2038.5971   -658.31755    300341.45    14.786739 
  446500    2223.5094   -645.05177    299473.56    14.770866 
  447000    1964.3174   -642.26879    298217.72    14.718125 
  447500    1802.8134   -746.00996     297406.7    15.503149 
  448000     2280.096   -772.51837    298791.03    15.621911 
  448500    1964.6433   -692.33207    306559.98    14.933409 
  449000    1984.0874    -654.2889    293840.86    14.682319 
  449500    2057.5388   -642.94363    302168.44    14.619246 
  450000    2028.6014   -649.68051    291340.22    14.639422 
  450500     2122.248   -644.25822    305522.21    14.637172 
  451000    2234.8014   -638.63936    314386.47    14.572844 
  451500    2252.6642   -658.83873     300139.3      14.6903 
  452000    2020.4279   -710.93387    292880.55    15.100737 
  452500    2054.3272   -716.73066    295576.94    15.265011 
  453000     1973.685   -704.74032    299377.46    15.029675 
  453500    2121.3244    -691.2903    309283.49    14.861092 
  454000    1842.6717   -689.79423    299861.43    14.945741 
  454500    2127.9729   -694.67373    308254.68    14.872087 
  455000    1904.3101   -670.67783    294511.29    14.902067 
  455500    2011.3809   -636.86289    304854.22    14.638551 
  456000     1864.963   -674.27903    304468.21    14.814873 
  456500    2122.3593   -693.50866    296681.56    14.809765 
  457000    1961.6427   -673.26935    300522.89    14.764331 
  457500    2110.6646   -699.28171    301885.22    15.024194 
  458000    2002.1921   -703.74882    302145.48    14.902521 
  458500    2072.3572   -667.65815    294575.99    14.711999 
  459000    2142.5137   -734.52416    304032.73    15.222465 
  459500    1934.1201   -711.83659    296809.04    15.060934 
  460000    2065.9189   -624.45355    320649.72     14.59074 
  460500    2032.1825   -737.61387    301015.42    15.171624 
  461000    2046.8958   -748.83007    306172.32    15.288007 
  461500    1862.5986   -753.82919    303922.93    15.253977 
  462000    1829.7882   -754.03376    303712.14    15.276604 
  462500    2166.0416   -743.06755    302853.15    15.107113 
  463000    1992.8603   -718.20495    291392.64    15.009948 
  463500    2073.3983   -693.79805     303767.5    14.815974 
  464000    2095.5054    -776.8534    299227.54    15.307862 
  464500    2003.8811    -699.3708    299351.18    14.824397 
  465000    2132.4549   -700.36998    304096.36    14.827171 
  465500    2119.6553   -750.33484    303460.09    15.136612 
  466000    2054.7837   -799.73895    307638.34    15.641397 
  466500    2012.6548   -793.27326    296779.07    15.535344 
  467000    2040.0828   -704.94174    303989.49    14.820755 
  467500    2095.3642   -692.36021     304830.6    14.780686 
  468000    2025.5978   -716.37371    294056.19    14.963288 
  468500    2142.6349   -671.33019    297559.41     14.73944 
  469000    2145.6365   -645.24332    311274.82    14.594404 
  469500    1984.5535   -688.71013    301687.93    14.814788 
  470000    2002.9267   -695.26079    297023.14    14.897894 
  470500    2072.4864    -712.9663    292760.21     15.02404 
  471000     2198.923   -698.24874    299182.69    14.943168 
  471500    2149.0849   -704.44788    296081.85    14.923681 
  472000    1932.8071   -711.09266    296604.17    15.095578 
  472500     2065.629    -696.6241    293275.64    14.824217 
  473000    1974.1782   -706.46819    301552.42    15.128928 
  473500    2324.6899   -726.56221    298920.26    15.094154 
  474000    2050.0655   -699.32819     298789.9      14.9411 
  474500    2006.3812   -701.20859    301051.41    14.819878 
  475000    2070.9854    -707.5898    297906.03    14.895625 
  475500    1995.7086   -648.05333    315952.58    14.580931 
  476000     2120.242   -754.02305    305983.79    15.190338 
  476500    2039.6828   -764.64546    299160.77    15.204992 
  477000    2031.0955   -712.92867     299894.4    14.872185 
  477500    1977.7621   -688.41619    302598.64    14.771511 
  478000    1974.8597   -718.93455    298737.64    15.032607 
  478500    2023.5506   -678.74967    299491.53    14.754592 
  479000    1990.2763   -770.14484    294051.37    15.380081 
  479500    1860.3338   -684.12697    299966.09    14.793165 
  480000    2014.3491   -718.10883    293332.24    15.018314 
  480500    2058.7305   -721.96201    296264.17    14.951636 
  481000    1729.2059   -711.77732    287958.34    14.898843 
  481500    2210.0749   -716.83373    296566.53    14.922813 
  482000    1911.8188   -644.99903    319564.81    14.562573 
  482500    1925.1619   -770.32534    291465.35    15.403716 
  483000    2109.4266   -768.51424     296179.4      15.3523 
  483500    2049.4337   -770.97332     295925.4    15.316914 
  484000     2036.816    -668.5563    300758.32    14.693792 
  484500    2136.7441   -692.98217    298127.37    14.829695 
  485000    2126.6944   -683.37677    301882.19    14.971704 
  485500    1853.3042   -635.07472    305432.22    14.641548 
  486000    1842.9827   -620.90785    304809.95    14.635766 
  486500    2045.3692   -712.09591     298045.1    15.127579 
  487000    1916.5235   -642.96065    294465.53    14.680813 
  487500    2019.2963    -780.0172    320332.15    15.785564 
  488000    2040.5225   -787.51666    311426.37    15.696907 
  488500    2051.2441   -805.36954     300983.1    15.755447 
  489000     1886.344   -795.76344    308480.97    15.731653 
  489500    1984.3833   -803.82142    303555.39    15.726225 
  490000    2123.9787   -799.66644    309641.96    15.748298 
  490500    1958.5247    -802.4698    298474.11    15.793591 
  491000    2125.2032   -800.51801    302923.57     15.79351 
  491500    2086.0768   -800.74238    277483.47     15.82726 
  492000    1936.2063   -802.49939    284671.07    15.822457 
  492500    2110.4533   -805.16776    304070.31    15.715532 
  493000    1981.7742   -736.26564    303036.33     15.00249 
  493500    1817.3013   -726.63304    291873.12     15.09986 
  494000    1985.6917   -764.59816     299413.3    15.290056 
  494500    2099.2041   -755.92163    298577.53    15.472224 
  495000     1870.809   -750.84948    298942.26    15.428873 
  495500    1882.6947   -760.25869    300998.87    15.238874 
  496000    2020.1343   -738.93485    304690.59    15.159937 
  496500    1995.0047   -665.43719    297522.39    14.698801 
  497000    1828.3751    -706.8049    300875.32    14.909912 
  497500    2007.8204    -723.2196     299273.9    15.150163 
  498000    1836.0043   -712.30125    296921.69    15.125466 
  498500     2149.361   -625.65127    312112.72     14.63009 
  499000     2086.202   -727.11934    294330.26     15.08855 
  499500    2099.2625   -702.59353    307008.49    15.059363 
  500000    1986.7009   -691.40646    298979.59    15.166051 
  500500     2069.047   -713.79981    304894.99    15.237821 
  501000    2134.9708   -709.52007    301036.94    15.146255 
  501500    1990.4313    -705.0288    298382.03    15.086519 
  502000    2068.3242   -770.17018    315307.78    15.707287 
  502500      1974.45   -781.83965    299321.65    15.743798 
  503000    1988.3136   -760.59303    303639.14     15.74273 
  503500    2155.3287   -775.15475    293325.05     15.79777 
  504000    2013.2475   -769.85996    310528.25    15.698114 
  504500     2065.089   -757.54742    304949.46     15.63453 
  505000    2032.8792   -734.97155    300143.07    15.477807 
  505500    1962.6177   -717.30286    294973.93    15.515251 
  506000    1824.8907   -645.61427    295790.08    15.052596 
  506500     1853.879    -639.0015    303333.04    15.139712 
  507000    2088.3123   -579.26022    324311.99    14.657897 
  507500    1882.3759   -591.81743    303151.96    14.729269 
  508000    1894.1711   -588.48431    300792.07    14.783621 
  508500    2009.7639   -588.68523     298239.5    14.725197 
  509000     1969.262   -593.31262    289094.34    14.794126 
  509500    1955.7979   -599.36797    293708.97    14.702449 
  510000    1926.7837   -590.08001    298381.06    14.705794 
  510500    1791.4782   -615.94232    296042.36    14.899578 
  511000    1973.9817   -638.68374    304427.72    15.032218 
  511500    2170.9825   -616.70343    303191.98    14.799296 
  512000    1962.2348   -678.88641    296997.44    15.292132 
  512500    1948.2355   -647.52298    296977.46    15.124355 
  513000    2012.0217      -648.29    294814.28    15.057838 
  513500    1927.3143   -652.04148    301892.86    15.024986 
  514000     2066.856   -714.70782    295453.81    15.192692 
  514500    1876.7374   -716.71107    296388.06    15.270271 
  515000    1727.2439    -759.2558     295578.7    15.600329 
  515500    1880.0369   -734.10734     299376.1    15.256692 
  516000     1957.118   -637.18345    309134.23    14.697182 
  516500    1826.1287   -650.51475    303552.08    14.738646 
  517000    2070.8965   -697.27904    299392.98    14.983426 
  517500    2202.6476   -758.98772    292674.72     15.55379 
  518000    1904.5666   -759.13996    302750.72    15.558298 
  518500    1861.9999   -648.32396    296652.98    14.749413 
  519000    1846.7644   -663.55343    301346.37    14.774245 
  519500    2041.7323   -708.37919    299361.94    14.993211 
  520000    2054.6633   -693.79708    304406.62    14.934031 
  520500    1981.0008   -743.30204    299237.15    15.418871 
  521000    2014.1953   -699.34296    293258.06    15.260439 
  521500    2038.8526   -766.48729    288293.04     15.86424 
  522000    1964.7177   -763.17374    292931.63    15.843781 
  522500    1749.6715   -742.28153    300025.43    15.654752 
  523000    2005.4344   -709.74514    298671.71    15.308842 
  523500    2067.2914   -710.61652    299878.37    15.358762 
  524000    2117.0088   -718.19687    300518.41    15.282676 
  524500    1925.5093   -603.83394    318177.97    14.656122 
  525000    1988.8312   -712.80286    293880.45    15.347856 
  525500    1820.0783   -680.13607    302154.82    15.105418 
  526000    2015.9111    -755.3435    304999.49    15.754527 
  526500    1857.2053    -761.0309    294402.39    15.857074 
  527000    1988.4958   -767.43949    301877.57    15.766102 
  527500    1856.1013   -761.32373    291218.68    15.680842 
  528000     2057.373   -714.40369    292538.41    15.242932 
  528500     2059.843   -622.50227    309484.76    14.666881 
  529000    1867.4176   -625.89913    305474.96    14.701689 
  529500     2021.224   -629.13113    304617.84    14.665089 
  530000    2098.5393   -727.25608    294940.17    15.091037 
  530500    1937.3675   -761.04809    299237.37    15.339125 
  531000    1991.6268   -759.05415    306594.44    15.269948 
  531500    1931.1104   -744.53952    299647.78    15.292613 
  532000     1938.942   -759.57424    299809.72    15.263262 
  532500    1913.7479   -763.95822    298556.03     15.29696 
  533000    2006.5063   -763.55242    299752.48    15.349722 
  533500     2090.513   -762.64154    301837.06    15.299076 
  534000    1948.9529   -767.41968    298634.92    15.368372 
  534500    1928.0644   -757.69067    285318.81    15.555135 
  535000    2001.7559   -730.50033    303370.89    15.517222 
  535500    2003.1191   -739.84773    304176.59    15.483454 
  536000    2093.4399   -766.94199     280030.1    15.864075 
  536500    2075.9363   -745.95733    300540.02    15.524815 
  537000    2029.3699    -734.5045    299246.14    15.551549 
  537500    1846.2857   -733.32721    297936.35    15.578074 
  538000    2161.2984   -743.43013    306744.86    15.608651 
  538500    2016.0241   -756.50563    303332.79    15.773425 
  539000    2064.1651   -635.45779    297071.28    14.856697 
  539500    2078.6068   -662.93262    297966.89    14.952445 
  540000    1881.7167   -633.27742    302266.44    14.821778 
  540500    1806.2491   -647.74042    293283.32    14.917579 
  541000    1900.2765   -608.67732    306464.64    14.676021 
  541500    2097.1426   -654.58711    295492.77    15.141251 
  542000      2098.01   -611.24942    297331.83    14.773777 
  542500    1909.3148   -621.40567    295265.01    14.783998 
  543000    1977.7289   -593.28404    306457.38    14.651836 
  543500     2010.884   -602.85723    295952.57    14.732351 
  544000    1977.8648   -652.64879    291727.22    15.270477 
  544500    2069.5563   -642.81307       296126    15.225033 
  545000    2103.5631   -665.45013    291849.28    15.198277 
  545500    1975.3945   -591.88103    304964.66     14.71046 
  546000    1952.4284   -669.99865    293539.07    15.225023 
  546500     2045.779   -593.76527    296114.96    14.730811 
  547000    1845.6468    -651.8836    295514.08    15.195828 
  547500    2132.8282   -646.38336    305108.43    15.020959 
  548000     2086.206   -631.06718    302250.31    15.037551 
  548500    2039.5855   -641.64034     300633.2    15.248242 
  549000    2146.7548   -639.43199    302982.55    15.078181 
  549500    2043.3064   -681.84255    296637.57    15.455143 
  550000    1953.4122    -664.0967    296475.86    15.390625 
  550500    1947.1362   -654.58454    297172.15    15.084338 
  551000     2323.519   -654.97167    295642.15    15.242653 
  551500    2104.1469   -655.62778    303708.88    15.095491 
  552000    2121.4585   -671.75678     295079.9    15.183605 
  552500    2038.3566   -594.84867    314321.65     14.58711 
  553000     2040.019      -608.15    310126.37    14.574306 
  553500     2023.768   -615.51548    297354.01    14.649236 
  554000    1952.2723   -613.52597    298499.37    14.673733 
  554500    2012.0998   -705.48898    296707.44    15.081435 
  555000    1953.4775   -736.97619    297392.12    15.412787 
  555500    1915.1715   -587.74114    339502.65    14.578784 
  556000    1990.9523   -681.19393    292142.73    15.020827 
  556500    2016.9725   -727.34412    283050.51    15.231283 
  557000    1832.1163   -705.96847    302164.03    15.038357 
  557500    1950.6959   -717.23406    306765.64    15.178596 
  558000    1852.9796   -695.03254    306608.68    14.947013 
  558500    2002.3421   -703.06306    304630.39    15.003079 
  559000    1910.7972   -713.96603    301433.77    15.066799 
  559500    1970.6929   -713.15384    294487.17    15.079743 
  560000    1909.3594   -700.24848    303157.91    15.007504 
  560500    1990.8685   -685.96957    304197.83     14.93561 
  561000    1900.9308    -703.4714    288893.04    15.061909 
  561500    1931.4811   -640.36291    304705.74    14.681123 
  562000    1999.1108   -697.62189    293910.69    15.095064 
  562500    1924.8337   -643.92715    287468.43    14.718146 
  563000    1929.3986   -677.88719    293881.77    14.907815 
  563500    1959.0245    -721.1024    288833.81    15.157849 
  564000    1987.4136    -686.7973    305767.19    14.962393 
  564500    2127.9154   -720.42911    292236.28    15.169759 
  565000     1764.944   -721.09806    297281.58    15.230691 
  565500    2101.7259   -648.79264    318002.07    14.745006 
  566000    1975.9497   -718.43582    293716.11    15.302414 
  566500    1954.1695   -668.19272    304520.45    14.920206 
  567000    2081.0649   -605.15381    307361.74    14.617218 
  567500    2039.1924   -626.85842    304040.11    14.638133 
  568000    2027.4748   -627.36762    292784.22    14.620787 
  568500    1958.6595   -713.34023    283963.56     15.10868 
  569000    2037.1581     -689.542    301586.82    14.939606 
  569500    1935.3643   -722.25658    301254.71    15.126685 
  570000    1953.0918   -730.29839    296755.07    15.260342 
  570500    2090.5253   -662.82895    314958.96    14.833812 
  571000     2079.562   -723.54941    302926.25    15.208486 
  571500    1991.4559   -719.59159    302439.55    15.186537 
  572000    1971.8313   -701.07524    302197.07    15.013306 
  572500    2058.6329    -711.7957    296087.37    15.139324 
  573000    2145.8454   -727.51317    298527.82    15.208051 
  573500    1978.2872    -665.7777    298811.38    14.826067 
  574000    1875.7681   -658.41043    295478.55     14.91372 
  574500     2099.557   -708.76041    294094.54    15.099945 
  575000    1938.6839   -736.18651    292111.88    15.377529 
  575500    1751.3868   -656.37809    297525.33    14.840646 
  576000    2037.0585   -620.02653    301185.41    14.663987 
  576500    2195.2261   -641.96392    292044.08    14.804439 
  577000    1872.3365   -607.00519    315838.14    14.568786 
  577500    2094.7001   -625.63095    295769.18    14.646814 
  578000    1913.5474   -663.57482    305229.72    14.806777 
  578500    1842.3558   -619.89429    302095.01    14.608677 
  579000    1895.4206    -619.5666    274741.54    14.659181 
  579500    2135.4881   -633.52843    295196.85    14.649503 
  580000    1870.6586   -653.91328    280674.34    14.782377 
  580500    2017.3811   -691.38306    300055.24     15.01929 
  581000     2000.153   -669.54352    292942.15     14.98009 
  581500    2135.9446   -638.98253    298474.27    14.767599 
  582000    2073.1748   -636.79137    297310.45    14.816518 
  582500    1875.5484   -610.77603    299172.37    14.719238 
  583000    1961.6136    -635.4164    301428.34    14.833078 
  583500    1943.5923   -645.77952    298617.46    14.918202 
  584000     2116.904   -646.77937     296553.7    14.927267 
  584500    1887.9499   -660.10054    295129.17    14.944034 
  585000    1870.8978   -803.90242    278303.39    15.823774 
  585500    1979.0611   -786.51755    296561.23    15.745595 
  586000    1986.6423   -787.22222    301579.09    15.803753 
  586500    2033.4125   -762.70656    290723.05    15.836921 
  587000    1869.7924   -774.52247    305526.57     15.77814 
  587500    2049.3653   -771.72982    288820.65     15.87294 
  588000    2083.8035    -766.6675    294967.85    15.722509 
  588500    2036.0675   -716.79493    297842.78    15.242073 
  589000    2005.9895    -712.4623     302419.1    15.139778 
  589500    1881.6127   -701.47387    295033.23    15.041217 
  590000     2103.146   -710.47723    296422.12    15.071381 
  590500    2135.8282    -644.5149    300341.17    14.737847 
  591000    1833.5996   -639.86566    299770.47    14.770165 
  591500    2092.7417   -635.78522    306823.52    14.727448 
  592000    2083.9607   -644.23574    300112.46    14.802278 
  592500    2063.1415   -684.29117    297560.92    14.948599 
  593000    1867.8335   -769.58508    292591.66    15.500367 
  593500    2014.9991   -770.03618    293606.02    15.498002 
  594000    2027.1635   -768.81832    294339.53    15.498424 
  594500    2177.6833   -759.91763    297254.96     15.42423 
  595000     1948.789   -751.01233    299457.05    15.382835 
  595500    1973.7663   -748.77909    300235.04    15.428731 
  596000    2118.0577   -746.30833    306921.35     15.25962 
  596500    1961.9599   -645.62779    300156.63    14.637562 
  597000    2051.6333   -699.03721    308919.07    14.907163 
  597500    1998.6169   -697.36531    300633.93    14.935994 
  598000    1906.6735   -698.83421    300258.85    14.967798 
  598500    1890.9416   -710.50389     299196.5    14.955261 
  599000    2116.8862   -701.15964    304293.65    14.935797 
  599500    1918.3061   -765.94395    294896.25    15.376194 
  600000     1899.269   -799.23116    298479.74    15.603924 
  600500     1915.647   -686.83694     300696.9    14.776376 
  601000    1964.6813   -640.91643     299070.1    14.607184 
  601500    1955.9247   -652.72321    291977.27    14.633681 
  602000    2127.4133   -703.03384    293393.12    15.008567 
  602500    1781.8096   -700.07867    297208.42    15.055929 
  603000    1976.1095   -669.55461     297828.7    14.832754 
  603500    2064.5092   -694.64313    309304.06    15.070497 
  604000    2138.3142   -697.61404    298601.46     15.01512 
  604500    1916.5697   -661.29162    295201.56    14.788607 
  605000    2115.1144   -693.59073       305873    14.920728 
  605500    2050.6639   -718.27947    294463.29    15.142213 
  606000    2026.8684   -733.04494    295232.31    15.248162 
  606500     2208.537   -692.82568    309221.34     14.94453 
  607000    2073.6715   -698.19842       303698    15.130016 
  607500    2157.6652   -763.57066    295705.12    15.585042 
  608000    1832.8605   -747.10968    298585.25    15.598019 
  608500    2011.4431   -734.03022    299435.86    15.543807 
  609000    2062.5702   -717.66761       296099    15.319469 
  609500    1820.9719   -647.04399    302164.74    14.952171 
  610000    2083.8897   -648.16537     300999.3    15.016273 
  610500    2131.1727   -688.74741    301298.81    15.395977 
  611000    2024.3932   -652.84705    298937.09    15.059723 
  611500     1972.228    -645.5339    300628.06    15.071686 
  612000    1981.6181   -663.74602    300368.95    15.291001 
  612500    2244.3215   -701.70003    298974.59    15.452762 
  613000    1968.5477    -641.1491    301059.76    15.169133 
  613500    2012.3153   -643.42365    299900.12    15.156825 
  614000    1999.9235   -668.30247    301162.26    15.283344 
  614500    1900.2993   -652.28074    296400.12    15.037702 
  615000    1818.7079   -676.57419    303578.54    15.305877 
  615500     2115.127   -719.72763    300303.07     15.61145 
  616000    2010.0524   -642.43862    298269.23    15.070202 
  616500    1983.0495   -691.63832    298500.32    15.420792 
  617000    1970.7173   -646.72651    302299.33    15.138194 
  617500    2038.6998     -639.545    295600.89    15.089182 
  618000    2053.7038   -700.86075    300177.97    15.521775 
  618500    2045.2525   -640.67764    301134.75    15.068116 
  619000    1937.6194    -639.6829    304819.19    15.004577 
[...]
14848500    2042.6806    -701.1193    303250.33    14.917563 
14849000    2233.5352   -689.13027    295714.09    14.837871 
14849500    1859.3858   -701.55837       295728    14.935028 
14850000    1871.4385   -695.27474    304258.24     14.83322 
14850500    2115.5606   -682.46331    299536.86    14.743996 
14851000    2065.3309   -676.27732    300125.07    14.842649 
14851500    1988.1936   -675.90019    293198.88    14.888462 
14852000    2087.5483    -699.0899    296856.61    14.932369 
14852500    2039.5406   -709.88359    295743.98    14.993773 
14853000    1940.1227   -679.88301    288868.55    14.870787 
14853500    1991.8369   -749.60653    295145.09    15.336145 
14854000    1983.6578    -694.9587    302006.36     14.91436 
14854500    1949.1734   -706.06299    297535.87    14.946646 
14855000    2065.7215   -700.65239     297000.6    14.915099 
14855500    1939.1353   -690.79842    302635.94    14.854353 
14856000    2002.7822   -693.58508    310587.21    14.854979 
14856500    2028.7521    -714.2197    279188.76    14.979595 
14857000    1988.4512   -691.82122    284159.19    14.862117 
14857500    2013.9899   -686.32375    302156.19    14.877863 
14858000    2107.0604   -686.21945    298870.05    14.832063 
14858500    1894.2346   -701.49203    282143.55    14.927554 
14859000    1941.0013   -701.14758    291903.72    14.967208 
14859500    1950.1132   -714.39918    300572.67    14.950497 
14860000    2003.9911   -708.65995    294473.52    14.948027 
14860500    2017.3396   -714.38692    303447.71    15.032774 
14861000    2192.7903   -722.55129    299796.36    15.044055 
14861500    1985.3281   -708.55221    297323.79    15.019885 
14862000    2166.4863   -705.62293    292164.02    14.935504 
14862500    1970.2373   -699.14185    290705.85    14.927338 
14863000    2110.5618   -703.28041    303942.97    14.945414 
14863500    1979.3281    -710.0632    300573.33    14.981196 
14864000    1955.6863   -704.40144    290445.58    14.966506 
14864500    2120.3466   -701.21336    303868.63    14.904348 
14865000    1890.1654   -741.28098    297091.28    15.272273 
14865500     2003.658   -731.95484    301317.88    15.161684 
14866000    2089.0089   -753.67807    295631.44    15.257775 
14866500    1896.4469   -725.17782     299081.5    15.108309 
14867000    1878.7997   -730.33679    300159.23    15.182087 
14867500    1937.9563   -729.73726    303188.22    15.113706 
14868000    2029.0158   -684.65496    297469.04    14.814371 
14868500    2040.4602   -703.09446    290740.42    14.918037 
14869000    1787.9664   -710.63727    281145.46    14.948803 
14869500    1900.7894   -747.44893    289611.66    15.344675 
14870000     2004.024   -688.94695    297297.49    14.904065 
14870500    1961.9165   -737.57319    305116.74    15.222813 
14871000     1952.083   -736.82632    302630.36    15.204704 
14871500    2101.6599   -671.41642    316158.04    14.739036 
14872000    2069.3072   -713.39226    296166.79    14.986095 
14872500    2042.7776   -693.58044    299683.28     14.88841 
14873000    2204.0128   -700.05045    292645.35    14.948434 
14873500    1989.0689   -695.43004    303299.18     14.82428 
14874000    1929.0635   -727.20498    298654.53    15.114475 
14874500    1917.7794   -691.18842    298063.22    14.939915 
14875000    1949.1145   -686.46991    305196.26    14.898464 
14875500     1889.318   -703.04173    301497.34    14.949562 
14876000    1951.8587   -743.34491    294739.08    15.185765 
14876500    1966.8626   -738.84166     292750.2    15.194807 
14877000    2072.1746   -701.39678    306297.72    14.864482 
14877500    1997.4445   -672.15392    293816.33    14.744951 
14878000    2002.1331   -680.74363    318240.21    14.762081 
14878500    2088.7087   -688.08055    312049.03    14.765229 
14879000    1818.9613   -696.63646     300105.6     14.89051 
14879500    2175.3818   -689.11825    314769.01    14.831457 
14880000     2009.915   -685.49165    301005.76    14.806961 
14880500     1947.233   -702.46514    300848.77    14.922987 
14881000    1921.7015   -706.74268    296450.33    14.883024 
14881500    1888.8068   -696.38612    310756.71     14.82458 
14882000    1794.7683   -712.76185     291362.6    14.960138 
14882500    1884.4605   -741.56099    293806.43    15.205423 
14883000     2220.195   -657.08845       318357    14.621075 
14883500    1950.2808    -685.4178    298575.78    14.812465 
14884000    2016.9458   -696.42489    302754.45    14.901057 
14884500    2092.9581   -682.41405    310246.48    14.835914 
14885000    1864.4445   -749.48873    293259.99    15.327458 
14885500     1869.218   -718.96514    278016.44    15.021532 
14886000    2065.0261   -692.76288    292484.83    14.855434 
14886500    1959.2534   -703.85036     294249.4    14.878143 
14887000    2129.1942   -713.89077    290399.08    14.960963 
14887500    1991.0807   -703.70585    303685.08    14.890557 
14888000    1815.9341   -696.29832    286526.77    14.870543 
14888500    2002.2288   -690.14024    291360.46    14.833892 
14889000    1908.5288   -703.13636    291889.48    14.990737 
14889500    1848.1966   -727.69656     300956.8    15.091943 
14890000    1769.3258   -739.01149    294733.72    15.240333 
14890500    2013.5016   -724.86526    303161.53    15.054884 
14891000    1970.6639   -713.99451     294496.4    15.024322 
14891500    2053.8617   -700.92689    282457.31    14.903649 
14892000    2128.6569   -707.55358    303228.05    14.968516 
14892500    1830.6348   -686.41961    293633.58    14.873842 
14893000    1957.7091   -707.78764     289880.2    14.998246 
14893500    1910.2876   -707.93461    288709.38      14.9471 
14894000      1879.82   -705.58789    301822.65    14.984069 
14894500    2004.4198   -702.41066     285230.7     15.00189 
14895000    2015.9734   -714.84901     305292.4    15.121666 
14895500    1926.6641   -681.67766    302484.87    14.853021 
14896000    1904.7186   -689.49784    284180.27    14.936083 
14896500    1952.3138   -654.13481    302041.17    14.794982 
14897000    1992.0151    -676.0127    308535.83    14.853358 
14897500    1937.4165   -639.31309    293734.06    14.752481 
14898000    2206.3645   -683.24088    297632.49    15.020729 
14898500    2026.1309   -661.27771    308452.23     14.84993 
14899000    1866.6568    -611.1042    300647.48    14.645905 
14899500    1897.2648   -632.27917    299428.88    14.833441 
14900000     1866.036   -639.42895    297955.22    14.833019 
14900500    1963.9553   -626.41204    296458.51    14.748646 
14901000    2141.8318   -599.73868    305913.27    14.621253 
14901500    2033.6817   -727.67893    298371.59     15.43888 
14902000    1884.8616   -764.81847    301364.44    15.724952 
14902500    1886.9674   -753.18999    303370.67    15.692816 
14903000    2103.1104   -703.45788    302658.42     15.19568 
14903500    2135.8801   -590.20356    304203.91    14.584826 
14904000    1920.7262   -667.30692    296852.15     15.00703 
14904500    1870.6952   -617.63403    305432.45    14.818268 
14905000    2069.9278   -598.99107    311353.84    14.791009 
14905500    2021.3986   -734.81355     302323.9    15.684628 
14906000    2102.0782   -747.16386    299650.61    16.033808 
14906500    1959.7879   -652.51094    301158.95     15.31692 
14907000    2048.9879   -686.72456    299527.45    15.483378 
14907500    2141.4129   -660.87953    308508.65    15.274237 
14908000    2097.7634   -667.87076    298857.73    15.357387 
14908500    1944.9684   -626.29116    297924.58    15.038549 
14909000    1998.3436   -646.98507    296615.98    15.122274 
14909500    2046.3515   -646.97806    299805.16    15.063051 
14910000    1890.8949   -700.30848    302212.06    15.421847 
14910500    2168.7672   -748.08068    304410.06    15.684042 
14911000    1940.2781   -744.59601    308238.61    15.720709 
14911500    1973.0909    -748.0037    301409.15    15.799032 
14912000    1980.8596   -732.38716    301532.77    15.653181 
14912500    2243.2973   -543.14953    342019.93    14.504427 
14913000    1906.3524   -556.65201    292455.02     14.57628 
14913500    2006.2262   -538.53724    319560.92    14.525538 
14914000    2200.5521   -560.10283    298283.75    14.630242 
14914500    1852.3343   -540.03297    303244.82    14.564513 
14915000    1953.2873   -661.92066    298378.28    15.134708 
14915500    1932.1825   -658.28806    304271.45    15.256815 
14916000    2002.8078   -599.05605     304657.2    14.994004 
14916500    2157.3376   -612.24726    294883.83    15.017657 
14917000    1967.1875   -742.06979    298664.52    15.745495 
14917500    1934.2508   -711.44508    299779.52     15.64809 
14918000    1945.6218   -672.67679    299810.11    15.193586 
14918500    2072.2955   -679.13297    305506.69    15.132615 
14919000     1861.583   -764.30994    297462.92    15.892431 
14919500    1910.5489   -741.98875    300020.19     15.61833 
14920000     2053.706   -754.17199    302327.93    15.738974 
14920500    1887.5582   -753.18513    301929.05    15.868066 
14921000    2012.0959   -758.36102    283602.41    16.023857 
14921500    1877.0484   -655.71097    300602.38    15.136474 
14922000    2068.0355   -713.50768     294310.8    15.642548 
14922500    2095.5274   -750.55417    300569.65    15.910557 
14923000      1979.75   -740.96361    300328.43    15.772281 
14923500    2212.8483   -762.79613    289747.84    16.005923 
14924000    1956.2678   -628.22105    300833.24    14.989874 
14924500    2033.1987   -634.12594    293759.11     15.00433 
14925000    1944.8579   -626.15589    303239.96    14.804262 
14925500    1959.7341   -704.20005    298367.34    15.366701 
14926000    1997.1352   -720.19656    300666.18    15.806152 
14926500    1961.7366   -670.23303    302796.45    15.329705 
14927000    2026.0015   -596.48232    306364.41    14.831208 
14927500    2056.5106   -682.21046    299837.14    15.461865 
14928000    2190.7358   -679.91984    304272.15    15.339892 
14928500    2013.6164   -660.30568    301376.02    15.289058 
14929000    1974.2394   -727.09174    297535.16    16.001544 
14929500    2101.4119   -662.37113     300793.8    15.247048 
14930000     2076.516    -682.2016    302751.31    15.391663 
14930500    2065.3516   -730.72162    296073.66    15.892938 
14931000    1699.2642   -636.13687    294579.04     15.23079 
14931500    2082.3148   -610.19324    303203.17    15.016167 
14932000    1970.0855   -679.82307    300514.19    15.243919 
14932500    2233.7138   -688.19408    306045.83    15.416304 
14933000    1919.1981   -694.27925    295714.45    15.509945 
14933500    1969.0816     -641.499    299553.38    14.971217 
14934000    1965.0003   -688.65139    300243.18    15.400524 
14934500    1768.1655    -651.3276    301836.05    15.090517 
14935000    2056.1939   -595.30175    310959.24     14.57493 
14935500    1877.3387   -651.99586    300333.95    15.125913 
14936000     2147.113   -694.60965    303391.78    15.448151 
14936500    2067.0532   -674.07444    301173.52    15.445834 
14937000    2013.8715    -683.3411    300541.95    15.461956 
14937500    2005.6283    -713.9952    296085.37    15.693843 
14938000    2100.4254    -727.1702    306305.96    15.678159 
14938500    2079.4783   -664.68407    301609.83    15.218361 
14939000    2021.8483   -686.74295    299153.07    15.438226 
14939500    1967.5012   -704.62617    296288.74    15.875483 
14940000    1803.2094   -712.61375       296809    15.810825 
14940500    2067.2756   -742.12327    305323.08    15.850085 
14941000    1819.8902   -739.64238    301620.22     15.74453 
14941500    2038.2555   -711.80918    302598.43    15.409576 
14942000    1978.2388   -605.44294    297427.53    14.688941 
14942500    2123.5471   -646.75595    300580.01    14.834375 
14943000    1844.6601   -626.02494    291256.27    14.740208 
14943500    1859.9765   -588.21301    298737.36    14.619632 
14944000    1870.8749   -706.93093     297870.7     15.50648 
14944500    1885.6021   -662.72949    301503.17    15.318497 
14945000     1991.601     -692.588    301361.51    15.455801 
14945500    1913.1734    -669.5448    297905.04    15.268049 
14946000    2078.7413     -665.109    299143.21    15.353991 
14946500    1938.1876   -719.70561    297318.89    15.774937 
14947000    1952.6399   -711.70018    296196.15     15.81493 
14947500    1834.2366   -693.08901    297012.01    15.800507 
14948000    2020.9346   -710.53553    299018.99     15.73382 
14948500     2028.619    -696.8258    296291.18    15.510451 
14949000    1887.4326   -636.88621    301741.21    15.065788 
14949500    2039.2259   -707.34654    302143.31    15.555173 
14950000    2192.7675    -678.7211    305046.87    15.399302 
14950500    1920.5517    -675.7694    298916.52    15.401277 
14951000    1983.0414   -673.69412     297711.8    15.381184 
14951500    1917.0577   -673.42112    294830.15    15.301118 
14952000     2079.865   -690.39389    302735.83    15.472667 
14952500    1981.6511   -726.18946    293693.43    15.916657 
14953000    1982.1395   -670.75805    304277.65    15.354978 
14953500    1997.9047   -690.13361    302460.47    15.437586 
14954000    2247.4022   -675.10066    305364.52    15.327749 
14954500    1948.8623   -675.22671    301881.88    15.452792 
14955000    2070.2215   -705.80415    301728.42    15.624861 
14955500    1868.0525   -699.78353    302277.58    15.573892 
14956000    2030.9971   -622.63632    298674.94    15.095908 
14956500    2162.6813   -647.48551       303122    15.238008 
14957000    1880.5514   -735.82068    295685.64    15.987793 
14957500    1980.6614    -748.0223    303359.48    15.990019 
14958000    1819.0247   -683.25437    299233.07    15.451765 
14958500    2143.3033   -608.48567    301811.45    14.756299 
14959000    2217.6215   -623.53139    300243.31    14.913112 
14959500    1945.4608   -626.01454    296130.74    14.964832 
14960000    1938.3822    -698.4794    297444.06    15.438873 
14960500    2045.7826   -753.35339    282011.44    16.061884 
14961000    2039.7719   -647.61537    301500.99    15.145683 
14961500    1943.4618   -650.19879    298357.73    15.052434 
14962000    1941.8059   -618.01449    302698.95    14.909607 
14962500    1856.0624   -695.97794    299793.79     15.58442 
14963000    1855.5112   -680.82576     297819.5    15.406966 
14963500    1837.5515   -640.96427    295090.14    15.054568 
14964000    1909.7481   -717.76557    296249.86    15.617521 
14964500    2063.4194   -677.17947    302087.35    15.225963 
14965000    1962.3259   -756.13737    289150.42    15.903417 
14965500    2043.0193    -613.2452    299491.76    14.887651 
14966000    2001.4743   -618.40562    303507.46    14.920123 
14966500     1887.835   -665.81255    301577.41    15.150391 
14967000    1904.7852   -651.65662    295045.25    15.099849 
14967500    2026.6487   -687.25505    299260.24     15.27581 
14968000    1899.8192   -739.99374    295637.74     15.79317 
14968500    2229.1644   -761.11104    304493.03    15.664444 
14969000    1988.5868   -753.50965    294212.99    15.553989 
14969500     1950.558   -750.60599    298391.52     15.49837 
14970000    2063.2101    -741.9423    302773.46    15.474849 
14970500    1967.1489   -614.17261    305076.49     14.64346 
14971000    1980.1653   -677.04338    292942.25    15.013211 
14971500    1860.4236   -659.67711    297336.03    14.898778 
14972000    2045.4923   -680.11994    292401.55    14.966841 
14972500    1899.8547   -678.73352    305534.73    14.891083 
14973000    1987.6049   -614.73985    300980.55    14.646992 
14973500    2061.7785   -599.19937    311939.55    14.578649 
14974000     2240.117   -681.67774    297642.61      14.9788 
14974500    2150.8784   -653.13342    303397.65    14.798788 
14975000    2014.1301   -659.94799    302976.04    14.873136 
14975500    1837.4113   -656.41237    296999.82    15.019625 
14976000     2034.559   -615.66623    297486.13     14.88444 
14976500    1919.7499    -622.6975    297366.44     15.00055 
14977000     1914.776   -659.88885    300966.83    15.125407 
14977500    1999.4669   -623.78672    298892.82    14.948333 
14978000    1980.7529     -703.796    291297.58    15.617125 
14978500    2064.4284   -679.95511    304242.78    15.354319 
14979000     2030.979   -692.60969    299623.64    15.451196 
14979500    2097.4108    -697.3013     298614.1    15.375331 
14980000    1985.7355   -694.13891     298609.1    15.382649 
14980500     2106.758   -722.75399    306638.26     15.53446 
14981000    2007.0654   -721.93366    306840.32    15.421919 
14981500    1922.4643   -754.67014    296829.98    15.890258 
14982000    2090.7087   -781.46454    300372.08    15.855707 
14982500    1969.0456   -763.98189    297183.82    15.402758 
14983000    1921.7174   -646.47548    295870.99    14.535477 
14983500    1878.0183   -636.51766    298807.54    14.558426 
14984000    1984.0316    -641.6674    292728.26    14.567218 
14984500    2030.2177   -663.61016    299066.29    14.782697 
14985000    2005.5642   -747.34683    299765.43    15.450494 
14985500    2056.4297   -681.20903    302487.48    15.014746 
14986000    1947.2536   -589.43703    303204.15    14.633995 
14986500    1840.6058   -594.63499    298173.27    14.618983 
14987000    1938.6275   -589.98828    308891.47     14.59954 
14987500    2079.2918    -593.6404    306916.07    14.584683 
14988000    2059.4592   -590.66174    307739.89    14.615668 
14988500    2185.8557   -603.85623    291892.08    14.577924 
14989000    2010.8793   -624.50452    291335.69    14.581848 
14989500    1903.6266   -605.27591    308064.72    14.553808 
14990000    1976.3462    -604.4736    311594.64     14.51946 
14990500    1953.3741   -705.35871    298312.87    15.092152 
14991000    2067.0221   -712.21429    302139.48    15.064372 
14991500    2043.1332   -663.79647    302985.06    14.757545 
14992000    2015.2578   -708.22821    289366.42    14.976276 
14992500     1990.786    -705.0531    302297.47    15.018495 
14993000    2040.6774   -724.34925    304001.89    15.140929 
14993500    1992.4507   -750.20952    305290.74    15.147741 
14994000    2082.4076    -750.9808    300820.81    15.161622 
14994500     2063.103   -755.08945    303724.02     15.22826 
14995000    2010.0507   -765.37018    294713.76    15.276456 
14995500    2064.4332   -640.80878    299504.13    14.580083 
14996000     2014.521   -680.52212     300913.1    14.831751 
14996500    2142.8947   -694.30074    309639.31    14.784474 
14997000    2061.6905   -698.66746    293893.93    14.838305 
14997500    1984.3272    -669.6166    296977.44    14.853833 
14998000    2169.9583   -666.05201    301815.39    14.807153 
14998500    2066.8547   -656.76835    302457.52    14.841696 
14999000    1969.3826   -670.59865    293649.03    14.891813 
14999500     1931.691   -710.84167    299804.16    15.078234 
15000000    1846.4936   -734.84506       302352    15.404908 
Loop time of 67390.7 on 6 procs for 15000000 steps with 256 atoms

Performance: 38.462 ns/day, 0.624 hours/ns, 222.583 timesteps/s
98.9% CPU use with 6 MPI tasks x no OpenMP threads

MPI task timing breakdown:
Section |  min time  |  avg time  |  max time  |%varavg| %total
---------------------------------------------------------------
Pair    | 3734.8     | 3912.6     | 4081.4     | 186.4 |  5.81
Neigh   | 110.18     | 111.99     | 114.31     |  12.3 |  0.17
Comm    | 908.1      | 1081.1     | 1272.2     | 371.1 |  1.60
Output  | 535.88     | 535.9      | 535.99     |   0.2 |  0.80
Modify  | 61683      | 61696      | 61709      |   3.3 | 91.55
Other   |            | 53.54      |            |       |  0.08

Nlocal:    42.6667 ave 48 max 38 min
Histogram: 1 1 0 0 1 1 0 0 1 1
Nghost:    1125.67 ave 1150 max 1101 min
Histogram: 1 1 0 0 0 1 2 0 0 1
Neighs:    3545.83 ave 3930 max 3090 min
Histogram: 1 0 0 1 2 0 0 0 0 2

Total # of neighbors = 21275
Ave neighs/atom = 83.1055
Neighbor list builds = 758647
Dangerous builds = 1

write_data	data.final.${p_id}
write_data	data.final.1
Total wall time: 18:43:16
