LAMMPS (8 Feb 2019)
Processor partition = 2
echo both

include		in.partitions
variable p_id world   0 1 2 3 4 5
include		in.temp
variable	temperature equal 2000.
variable	tempDamp equal 0.1 # approx 0.1 ps
include		in.pressure
variable	pressure equal 300000.
variable	pressureDamp equal 1.0
include 	in.seed
variable	seed world 74581 93734 128321 21934 495716 871038
units		metal
include		in.box
read_data	data.equil.${p_id}
read_data	data.equil.2
  orthogonal box = (0.192254 0.192254 0.192254) to (15.9917 15.9917 15.9917)
  1 by 2 by 3 MPI processor grid
  reading atoms ...
  256 atoms
  reading velocities ...
  256 velocities

variable 	mass equal 26.981539
mass            1 ${mass}
mass            1 26.981539
include 	in.setup
variable	out_freq equal 500
variable	out_freq2 equal 500

neigh_modify    delay 10 every 1
include		in.al
### Argon Potential Parameters ###
pair_style 	eam/alloy
pair_coeff 	* * Al99.eam.alloy Al

timestep	0.002 # According to Frenkel and Smit is 0.001

thermo          ${out_freq}
thermo          500
thermo_style 	custom step temp pe press lx


restart 	${out_freq} Restart.lmp.${p_id} Restart2.lmp.${p_id}
restart 	500 Restart.lmp.${p_id} Restart2.lmp.${p_id}
restart 	500 Restart.lmp.2 Restart2.lmp.${p_id}
restart 	500 Restart.lmp.2 Restart2.lmp.2



# NPT

include		in.dump
dump            myDump all atom ${out_freq2} dump.al.${p_id}
dump            myDump all atom 500 dump.al.${p_id}
dump            myDump all atom 500 dump.al.2
dump            myDcdDump all dcd ${out_freq2} out.${p_id}.dcd
dump            myDcdDump all dcd 500 out.${p_id}.dcd
dump            myDcdDump all dcd 500 out.2.dcd
dump_modify	myDump append yes
dump_modify     myDcdDump append yes


timer 		timeout 23:50:00 every 1000
New timer settings: style=normal  mode=nosync  timeout=23:50:00

fix             1 all plumed plumedfile plumed.start.dat outfile plumed.out.${p_id}
fix             1 all plumed plumedfile plumed.start.dat outfile plumed.out.2
fix             2 all nph iso ${pressure} ${pressure} ${pressureDamp}
fix             2 all nph iso 300000 ${pressure} ${pressureDamp}
fix             2 all nph iso 300000 300000 ${pressureDamp}
fix             2 all nph iso 300000 300000 1
fix             3 all temp/csvr ${temperature} ${temperature} ${tempDamp} ${seed}
fix             3 all temp/csvr 2000 ${temperature} ${tempDamp} ${seed}
fix             3 all temp/csvr 2000 2000 ${tempDamp} ${seed}
fix             3 all temp/csvr 2000 2000 0.1 ${seed}
fix             3 all temp/csvr 2000 2000 0.1 128321
fix		4 all momentum 10000 linear 1 1 1 angular

run             15000000 upto # 30 ns
Neighbor list info ...
  update every 1 steps, delay 10 steps, check yes
  max neighbors/atom: 2000, page size: 100000
  master list distance cutoff = 8.28721
  ghost atom cutoff = 8.28721
  binsize = 4.1436, bins = 4 4 4
  1 neighbor lists, perpetual/occasional/extra = 1 0 0
  (1) pair eam/alloy, perpetual
      attributes: half, newton on
      pair build: half/bin/atomonly/newton
      stencil: half/bin/3d/newton
      bin: standard
Per MPI rank memory allocation (min/avg/max) = 4.002 | 4.065 | 4.377 Mbytes
Step Temp PotEng Press Lx 
       0    2414.0258   -736.96035    191436.69    15.799491 
     500    2122.0619   -713.66751    278946.57    15.388086 
    1000    2022.8366   -705.72725    306125.14    15.281387 
    1500    1814.8166   -704.52995    302194.86    15.267028 
    2000    2093.3588   -706.91881    304162.97    15.261838 
    2500    1991.6874    -708.0137    300150.91    15.254956 
    3000    2051.4725   -713.60043    294122.63    15.292855 
    3500    2074.9847   -708.13891    299343.24    15.254951 
    4000    1952.8945   -704.32613    299503.87    15.275725 
    4500    2049.0311   -684.80794    311153.96    15.120906 
    5000    2150.4893   -696.52602     305396.7    15.192386 
    5500    1924.5513   -704.80574    301405.83    15.168702 
    6000    2215.6517   -687.91523    304764.04    15.153661 
    6500    1929.7268    -694.6116    299202.43    15.168961 
    7000    1879.9158   -708.98552    289180.28    15.251048 
    7500    2094.2383   -696.10519    303384.13    15.177647 
    8000    2085.7569   -688.59604    303076.58    15.067764 
    8500    1978.1611    -697.1372    295345.67    15.137257 
    9000     1990.658   -679.87017     308851.9    15.041384 
    9500    2048.6576   -681.16866    311081.22    15.021337 
   10000    1916.7667   -696.01863    300277.72    15.123502 
   10500    2198.1941   -707.83713    295245.62    15.258831 
   11000    2107.2235   -696.40097    307334.56    15.072468 
   11500    2080.2609     -719.936       299919    15.273089 
   12000     1980.506   -699.49495    296803.88    15.077192 
   12500    2044.9606   -702.55344    297110.02    15.075306 
   13000    1967.4663    -699.0299    303550.25    15.025638 
   13500    2085.3311   -730.23973    299811.77    15.367379 
   14000    2230.4512    -724.5653    300374.35    15.288681 
   14500    1836.7594   -687.60261    308382.61    14.995722 
   15000    2112.9944    -692.6583    295717.22     14.99813 
   15500    2000.2874   -700.55273    300729.43    14.942039 
   16000    2102.8149   -693.59507    324079.17    14.878089 
   16500    2110.8153   -709.64386    285664.47    14.972229 
   17000    1991.3171   -707.51043    294298.59    14.952088 
   17500    2048.3669   -693.26702    310737.39    14.901622 
   18000     1984.134   -710.73288    294865.98    14.933465 
   18500    2077.2381   -698.37713    290740.32    14.966077 
   19000    1865.1323   -697.46562    294625.18    15.123612 
   19500    2083.0126   -695.25074    296045.61    14.942917 
   20000    2239.9833    -684.4282    319509.61    14.890587 
   20500    2017.6828   -711.49265    299527.05    15.220372 
   21000    2013.0233   -745.82607    291586.95    15.484425 
   21500    2047.4605   -715.63899    302135.36    15.352443 
   22000    2085.1964   -690.27702    301025.91    15.190663 
   22500    1929.0379   -692.93532    298158.66    15.104664 
   23000     2208.799   -666.96779    309249.09    15.041543 
   23500    2070.1332   -685.79261    296183.06    15.054461 
   24000    2083.5247   -674.22629    305571.83    14.973588 
   24500    1961.1341   -679.92676    298639.34     15.01497 
   25000    1969.1773   -729.49848    305911.08    15.427865 
   25500    1939.5795   -680.12625    303351.12    15.027683 
   26000    1936.9282   -673.37091     308738.1    15.001415 
   26500    1908.9708   -674.45221    283965.19    15.053266 
   27000    1981.7932   -679.13378    289873.61    15.047315 
   27500    1934.7278   -664.45316    295775.65     14.94285 
   28000    1943.7431   -663.90107    283852.66    15.030692 
   28500    2042.0774   -660.11216    295403.59     15.00468 
   29000    1870.6591   -651.71984    308975.35    14.957611 
   29500    1884.3316   -658.49578     301085.4    14.967584 
   30000    2167.4023   -652.86365    314890.42    14.945405 
   30500    2017.4653   -652.71071    298104.23    14.978451 
   31000    1850.0578    -646.5389    303657.92     14.95704 
   31500    1889.1277   -660.33434     294323.4    15.007274 
   32000    1990.4177   -669.80053    284070.96    15.057961 
   32500    2003.7995   -663.76806    285316.96    15.054044 
   33000    1905.6463   -652.42566    297495.93     14.95658 
   33500    1936.0671   -662.93632    288786.45    14.984062 
   34000    2044.2244   -654.06045    298474.03    14.947334 
   34500    2047.6507   -661.91043    278809.11    15.096452 
   35000    1933.4531   -670.16056    284612.01    15.008499 
   35500    2127.9705   -660.07764    299002.66    14.944264 
   36000    2094.4612   -665.19158    287360.72    14.979978 
   36500    2115.6206   -679.53301    291255.91    15.028073 
   37000    1968.0813   -653.77646    311804.95    14.864454 
   37500    1830.0658   -659.88011    301211.06    14.868878 
   38000    1886.1964   -671.42466    295794.38    14.924384 
   38500    1783.4023   -651.47856    318528.09    14.838001 
   39000    1832.2999   -652.02284    294076.05    14.916168 
   39500    2121.8195   -662.06804     296051.9    14.924908 
   40000    2070.4638   -677.77456    280487.48    15.014823 
   40500    2059.3207   -654.14659    305659.91    14.894464 
   41000    2117.8348   -666.72157    299737.78    14.899525 
   41500     1957.307   -661.36917    294165.33    14.882888 
   42000    1919.1029    -671.2923    301408.04    14.891768 
   42500    2094.6054   -661.30595    315435.27    14.861226 
   43000    1997.0627   -653.77191    305697.65    14.860978 
   43500    1988.1991   -653.11503    298644.13    14.873183 
   44000    2069.8397    -659.8494    289248.78    14.941388 
   44500    2003.0005   -678.68076     289717.8    15.060848 
   45000    1943.6831   -645.45328    314566.39    14.841022 
   45500    2103.7324   -675.23108    302550.09    14.973996 
   46000    2007.4573   -653.89383    313019.98    14.867313 
   46500    2001.8001   -679.93268    301048.16     15.04422 
   47000    1995.4941    -731.6879    303533.59     15.39681 
   47500    2143.5449   -740.93942    303827.27    15.445564 
   48000    1931.6492   -706.35503    302907.55    15.197891 
   48500    2015.2855   -706.24376    302148.23     15.19688 
   49000    1871.6102   -696.51473    299917.57    15.106679 
   49500    1839.4938   -675.43067     299717.8    14.981973 
   50000    2105.1575     -679.614    295201.38     14.99497 
   50500    1759.9031   -726.67069    298414.08    15.395408 
   51000    1968.8008   -753.53513    309955.56    15.507438 
   51500    2068.1782   -754.32637    301769.79    15.495381 
   52000    2111.9505   -777.96829    289482.28    15.618856 
   52500     1982.503   -769.86314    290734.95    15.603442 
   53000    1972.8524   -769.93235    306533.21    15.562675 
   53500    2013.1978   -778.55592    276095.53     15.64088 
   54000    1977.1037   -773.98916    306793.65     15.57468 
   54500    1907.7505   -789.13894    276537.65    15.670291 
   55000    1881.5323   -773.91649    286149.81    15.621724 
   55500    2015.2201   -778.41524    296910.28    15.625013 
   56000    1944.5548   -781.59437     304038.2     15.61487 
   56500    1992.5454   -784.70504    313812.79    15.576922 
   57000    2044.4542   -740.26576    296337.49    15.479035 
   57500    1911.8166   -727.35642    303582.64    15.307333 
   58000     1946.149   -764.09808    289568.92     15.61301 
   58500    1820.5649   -781.75483    294631.48    15.612218 
   59000    1864.0804   -766.82288    309817.38    15.565654 
   59500     2051.274   -774.85848    255840.82     15.65584 
   60000    1970.1515   -753.93922    275783.51    15.519416 
   60500    2080.9643   -757.35721    304719.95    15.543345 
   61000    1941.9436   -784.31731    298407.83    15.618691 
   61500    1955.5859   -780.50703     300848.4    15.607585 
   62000    2058.5123   -776.18028    313110.42    15.581384 
   62500    2099.0215    -775.8988    309179.26    15.575559 
   63000    1878.2167   -783.83254    300289.81    15.617878 
   63500    1982.7574    -770.6011    303740.79    15.584188 
   64000    1942.5688   -749.44957    309534.01    15.474485 
   64500    1952.6654   -652.17269    316962.16    14.836932 
   65000    1977.0162     -690.752    293301.42    14.946427 
   65500    2001.5708   -675.01271       299812    14.790598 
   66000    2033.6503   -689.31876    285008.87    14.936527 
   66500    1995.5389   -698.21731    304009.96    14.844723 
   67000    1907.5842   -697.15055    306332.18    14.825934 
   67500    1990.2708    -667.7662    305817.69     14.80489 
   68000    1848.5267   -668.54491     293015.6    14.830316 
   68500    1891.9702   -666.70736    296334.21    14.825608 
   69000     1918.551   -672.93246    289922.09    14.833749 
   69500    1921.5886   -672.02637    294868.34    14.859166 
   70000    2005.3136   -664.73603    301508.63    14.784572 
   70500    2042.3524   -648.87998    329870.23    14.743069 
   71000    2105.7682    -676.9686    293304.55    14.797714 
   71500    1879.0768   -661.77412    307919.06    14.803723 
   72000    2019.8085   -690.73827    296462.42    14.818073 
   72500    2041.8086   -670.63564    302155.29    14.835247 
   73000    1982.2893   -659.08835    299669.85     14.85218 
   73500    1878.3757    -651.9501     319253.1    14.752686 
   74000    2034.2124   -672.48784    292578.23    14.867585 
   74500    2036.4281   -665.94162    304463.02    14.810602 
   75000    2177.6473   -747.29173    302340.23    15.503875 
   75500    2087.4244   -720.91723    296697.83    15.312381 
   76000    2049.3495   -699.91143    299411.24    15.234929 
   76500    2166.9504   -753.90397    267795.08    15.644545 
   77000    1906.8744   -696.53463       310441    15.063918 
   77500     1923.744   -704.95123    305354.88    15.200046 
   78000    2037.6751   -707.20597    298639.91    15.229662 
   78500    1917.0036   -741.75894    295791.82    15.548105 
   79000    2271.9682    -701.2748    309665.23    15.210084 
   79500    1906.7549   -700.72518    303647.43    15.161973 
   80000     2148.576   -701.38249    306200.14    15.257809 
   80500    1749.9187   -711.08248    294095.71    15.365192 
   81000    1960.8265   -706.86257    302037.73    15.253239 
   81500      2188.37   -707.76732    303551.39    15.249825 
   82000    2038.1533    -696.5387    307803.91    15.212281 
   82500    1958.9598   -710.30518    294571.78    15.360335 
   83000     2061.579   -746.02532    300272.83    15.566098 
   83500     1908.801   -761.90311    299962.16    15.535137 
   84000    2092.6152   -791.50874    315678.47    15.566999 
   84500    1990.5564   -801.18636    282548.14    15.650197 
   85000    1999.8319   -790.78196    320594.64    15.530355 
   85500    1997.5088   -793.68785    297504.89     15.64329 
   86000    1863.2677   -799.06696    279133.81    15.665259 
   86500    1919.6151   -789.67461    305244.81    15.629202 
   87000    1838.4278   -790.71632    306867.23    15.589465 
   87500    1983.6178   -797.15245    285662.67     15.66169 
   88000    1943.1696   -789.85269    314925.62    15.574933 
   88500    2129.4994   -799.56602    289149.92    15.649974 
   89000    1954.0803   -786.60434    292034.59    15.665082 
   89500    2146.4038   -771.92292    288227.75    15.627796 
   90000    1904.3719   -743.34813    302555.38    15.525964 
   90500    1876.7779    -757.7042    295421.57    15.630502 
   91000    2095.7501   -755.00386    304472.98    15.532866 
   91500    2007.6805   -710.68033    309991.75    15.057859 
   92000    1888.6802   -735.10197    291889.89    15.156206 
   92500    1856.1596   -720.31988    300364.66    15.168728 
   93000    2126.2575   -691.69696    308337.71    15.091585 
   93500    1982.9317   -703.31447    302321.81    15.168528 
   94000    1943.3696   -716.90059    290375.37    15.219134 
   94500    1946.1455   -720.86296    296057.21    15.202295 
   95000     2055.783   -669.25237    298192.63    14.986573 
   95500    2124.1882   -645.36885    314531.49    14.762766 
   96000    1978.2052   -645.38344    308414.32    14.754714 
   96500    2098.5012   -644.77349    311523.89    14.768496 
   97000    1996.1273   -643.30203    307065.19    14.754129 
   97500    2131.2331   -654.17544    280417.05    14.841082 
   98000    2064.4491   -651.69618    292300.53    14.785854 
   98500    1857.2843   -640.25363     299802.5    14.725078 
   99000    1904.0538   -653.65326     299123.6    14.754808 
   99500    1897.7731   -646.86342     275676.2    14.807997 
  100000    1865.6462   -640.10917    303399.63     14.73273 
  100500    1911.0138   -654.49501    284912.36    14.809419 
  101000    2124.8831   -647.04509    288543.77    14.749979 
  101500    2025.4652   -638.53971     302722.1     14.74077 
  102000    2001.3305   -633.81322    280148.74    14.777253 
  102500    2080.3007   -630.44197    299251.87    14.754137 
  103000    1932.8503    -613.6862    301913.21    14.765378 
  103500    1946.2716   -620.31302    287595.46     14.75282 
  104000    2030.6036    -615.7007    263037.62    14.840448 
  104500    2028.7845   -616.57262    288684.17    14.849983 
  105000    1977.6053   -617.30478    301825.23    14.742658 
  105500     1848.082   -618.73246    276824.44     14.78365 
  106000    2220.1314   -617.09737    298253.99    14.785289 
  106500    1935.0876   -605.80329     326959.4    14.765977 
  107000    1997.0054   -616.23574    280050.71    14.837519 
  107500    1950.8596   -625.04267    284296.81    14.768406 
  108000    1975.6166   -620.66873     281360.4     14.83334 
  108500    2100.8659   -618.88558     278326.5    14.818693 
  109000    2080.4888   -624.27209    282348.57    14.803707 
  109500    2022.8457   -629.60171    282634.86    14.813393 
  110000    2069.2669   -609.67538    338411.59    14.719154 
  110500    2102.3595   -629.09839    282426.24    14.862928 
  111000    2060.8794   -611.40933    315302.28    14.732024 
  111500    2076.8224    -613.3764    314769.55    14.737238 
  112000    2082.0919   -621.54781     282289.4    14.823243 
  112500     1896.549   -606.17536    327030.42    14.740671 
  113000    1907.2299   -610.47853    310057.87    14.745044 
  113500    2157.5737   -626.70326    295103.35    14.838998 
  114000    1935.6021   -619.52371    300599.87    14.749822 
  114500    1878.8148   -619.61738    296418.87    14.780845 
  115000    2109.6442   -643.30546    284274.41     14.85581 
  115500    2085.6756   -634.88372    283503.52    14.812684 
  116000    1904.2415   -628.95334    298672.89    14.778293 
  116500    1901.7166   -621.88698    299182.58    14.820096 
  117000    2146.5958   -641.89013     285971.6    14.841948 
  117500    2176.8564   -648.33404    291880.43    14.788712 
  118000    2016.1072   -663.26828    285961.64    14.870535 
  118500    1915.4278   -642.31449    308387.87    14.792789 
  119000    2175.1037   -662.42347    294545.54    14.823398 
  119500    2003.1261     -649.961    294351.35    14.826488 
  120000    1984.2803   -647.10065    307993.06    14.795204 
  120500    2090.3274   -668.65909    306657.79    14.960419 
  121000    1983.8353   -740.07694     303989.1    15.581034 
  121500    1951.4788   -751.96201    304601.94    15.600108 
  122000    2001.5195   -755.97219    295720.25    15.692478 
  122500    2003.5964   -748.26841    300321.99    15.663064 
  123000    2180.4431   -748.99599     315862.5    15.548519 
  123500    2066.7465    -755.4569    308246.01    15.580708 
  124000    1998.4275   -765.92065    287955.72    15.648812 
  124500    2136.5315   -757.97093    306040.81     15.64604 
  125000    1986.5302   -755.53152    301011.24     15.63974 
  125500    1999.5708   -761.56691    279706.42    15.665792 
  126000    1995.5605    -744.6842    305307.93    15.425072 
  126500    1997.2878   -762.95351    292554.67    15.623135 
  127000    1940.0003   -764.95324    307294.09    15.599885 
  127500    1870.6936   -765.63267    305360.23    15.508223 
  128000    2013.7701   -783.14259    306835.33    15.632563 
  128500    2040.1653   -798.85456    280270.63    15.704045 
  129000     1952.401   -797.59945    294812.25    15.640781 
  129500    1936.9832   -797.30404    302739.53    15.610792 
  130000    2116.7551   -796.26538     289029.9    15.700143 
  130500    2022.9169   -793.80427    295557.82    15.680717 
  131000    2012.6954   -799.17976    294551.96     15.64692 
  131500    1918.0534   -795.36488    298923.73    15.655806 
  132000    1967.0303   -799.80283    291408.16    15.656616 
  132500    1944.7399   -786.96479    298177.05    15.666695 
  133000    2020.1378   -778.59162    308986.17    15.614797 
  133500    2007.4467   -797.92163    303307.76    15.587422 
  134000    2094.9272   -794.39468    309401.95    15.568659 
  134500    1957.8201   -800.91871    290239.05    15.655509 
  135000    1942.3014   -796.00152    298078.87    15.649212 
  135500    2225.2301   -743.05703    315001.39    15.073884 
  136000    2133.3901   -762.35851    291823.08    15.194117 
  136500    2030.8018   -732.36029    308840.75    15.038965 
  137000    1909.2744   -723.06249       301624    15.100903 
  137500    1830.7888   -695.04543     308099.4    15.036866 
  138000    2001.1938   -756.01301    311552.63    15.580428 
  138500    1779.7132   -750.14217    297971.25    15.663507 
  139000    2208.0646    -763.3724    279930.79    15.729917 
  139500    1939.9698    -752.4163    305920.46    15.590919 
  140000    1777.1641   -640.03495    323271.03    14.716233 
  140500    2022.6704   -717.72618     292078.3    15.188113 
  141000    2158.2463   -706.59788    292290.67    15.151101 
  141500    1920.7537   -712.84249    300027.81    15.161829 
  142000    2012.8992   -727.63875    301902.56    15.114502 
  142500    1746.5073    -727.5141    292946.15     15.23079 
  143000    1921.5784   -730.63775    294414.78    15.149424 
  143500    1856.7861   -723.90994    293790.98    15.218637 
  144000    1946.9751   -740.00145    297495.43    15.335511 
  144500     2026.466   -690.84817    314160.22    14.994913 
  145000     1958.188   -696.72048     306038.7     15.14328 
  145500    1946.3658   -698.86521    295072.18    15.197854 
  146000    2055.7578   -676.30438    295879.25    14.991348 
  146500    1985.3064   -678.63896    301097.43    14.985605 
  147000    2094.6902   -703.40944    303553.73    15.146995 
  147500    2165.6596   -697.09351    312486.24    15.113566 
  148000     1982.488   -686.72092    299504.86    15.072783 
  148500     1985.974   -694.83621    307651.42    15.011538 
  149000    2203.4221   -700.32306    300608.19     15.18275 
  149500    1957.9565   -682.49944     299797.5    15.049367 
  150000    1898.4797   -664.57702    297990.15    14.827383 
  150500    2168.5662   -714.84173    295565.86    15.222973 
  151000    1984.3683   -704.46612    303164.76    15.141247 
  151500    1955.4808   -699.33876    295719.83    15.149263 
  152000     2029.375   -722.31053    293537.16    15.230125 
  152500    1919.8585   -687.30386    295956.24    15.015383 
  153000     1783.979   -675.33414     301757.3    14.994344 
  153500    2088.9838    -754.3104    298207.13    15.689086 
  154000    1908.3517    -751.7428    299660.84    15.670959 
  154500    2037.5128   -749.48659    307291.72     15.63721 
  155000    2165.3448   -754.06512    290375.06    15.718508 
  155500    1947.3706   -757.37575    298182.39    15.649205 
  156000    2010.9187   -747.19657    312193.49      15.5283 
  156500    1842.4732   -756.37278    268514.51    15.748098 
  157000    2058.5383   -742.62798    313608.46    15.579615 
  157500    1925.8466   -751.60562    302935.67    15.700639 
  158000    1887.8839   -757.83012     279795.8    15.777051 
  158500    1972.7327   -766.46081    281888.77    15.788276 
  159000    2043.8967   -747.73455    302438.12    15.708492 
  159500    2020.3955   -752.91504    300825.43    15.798433 
  160000    1921.8654   -761.21333    289315.06    15.815594 
  160500    2185.4564   -740.13681    293827.55    15.702403 
  161000    2097.4151   -752.52287    301365.82    15.684295 
  161500    2002.1501   -749.27057    312729.34    15.567492 
  162000    2140.2531   -755.38672    292039.27    15.723273 
  162500    2128.4558     -756.035    301484.02    15.657454 
  163000    2102.9973   -757.04329     298650.6    15.717315 
  163500    1935.5836   -746.91275    292767.38    15.734942 
  164000    2036.8466   -761.44319    265057.45    15.859303 
  164500    1958.5512   -763.18724    294135.82    15.797821 
  165000     1891.908   -754.56356    309293.71    15.677744 
  165500     2069.243   -757.02948    314970.09    15.772418 
  166000    1960.0828   -765.00189    284976.43    15.866281 
  166500    2107.9977   -742.23384    314532.63    15.797896 
  167000    2007.1233   -762.23873    305027.23    15.796089 
  167500     1886.505    -764.5747    285451.74    15.806401 
  168000    1817.7266    -751.7523    299897.68    15.787628 
  168500    2083.6543   -755.46221    306628.06    15.782803 
  169000    2041.0383    -754.4692    308570.95    15.742943 
  169500    2070.3264   -748.97419    317339.08    15.651207 
  170000     2027.522   -758.59603    306084.68    15.739198 
  170500    1978.1814   -747.43558    304915.07    15.748455 
  171000    2061.2797   -757.75652    293120.29    15.772261 
  171500    1984.2929   -763.68122    279850.21    15.834659 
  172000     1976.032   -753.38377    295324.08    15.758918 
  172500    1852.7585   -743.04516    304672.91    15.627753 
  173000    1862.8787   -757.20397    291251.79    15.715105 
  173500    2104.5503   -737.43799    309694.07    15.541364 
  174000     2209.102   -650.51216    308577.35    14.908961 
  174500    2128.6781   -648.41826    312538.41    14.690488 
  175000     1953.446   -643.20833    310892.41    14.693063 
  175500    1875.1609   -665.62987    292737.66    14.906273 
  176000    2012.7644   -736.21158    295940.12    15.232787 
  176500    1957.8813   -734.28398    307029.99    15.130022 
  177000    2077.4538   -758.40584    299995.52    15.205971 
  177500    2101.8098   -743.48306    295383.19      15.2009 
  178000    1974.8117   -749.04483    309053.43    15.116868 
  178500    2069.6684   -745.42278    297092.62    15.277826 
  179000    1902.8157   -766.17336    289443.95    15.342661 
  179500    1967.1109   -765.96533     290592.3     15.27062 
  180000    1938.8847   -746.01381    307084.81    15.113192 
  180500    1976.8694   -760.02685    292404.34    15.290075 
  181000    2128.4563   -749.14096    298343.76     15.22357 
  181500    1874.5135   -693.58996    302340.77    15.155913 
  182000    2069.1227   -695.13644    305027.35    15.109697 
  182500    2106.8823   -689.05725    303270.81    15.136531 
  183000    1935.6339   -652.99264     298377.9    14.845161 
  183500    1844.3108   -649.60857    300523.46    14.855013 
  184000    1987.6108   -706.83088    290191.05    15.167311 
  184500    1988.5777   -668.27172    301031.67    14.873247 
  185000    2094.5388   -637.59567    320853.16    14.731625 
  185500    1959.5852   -709.72699    298165.51    15.179374 
  186000    1964.1392   -712.53174    299324.34    15.201056 
  186500    2081.1888   -639.44973    315250.19    14.698425 
  187000    2146.1777   -658.83596     292946.6    14.863138 
  187500    2008.7473   -648.58115    303351.01    14.809307 
  188000    2079.7441   -700.04047    304113.05    15.134297 
  188500    2012.4657   -670.11152    305217.87    15.019807 
  189000    2173.9581   -686.76644    305601.58    15.181016 
  189500    2007.0514   -696.25662     296852.6    15.254236 
  190000     1836.137   -704.46846    303743.77    15.117502 
  190500    2066.6161   -672.83272    300916.18    14.830233 
  191000    1995.9727    -692.6896    302873.17     15.04909 
  191500    2038.9679   -715.24599    290481.26    15.198469 
  192000    1966.2936    -705.2892    293775.71    15.117754 
  192500    2086.9266   -689.79536    302661.08    15.095508 
  193000    2264.6997   -664.84144    299249.34    14.888135 
  193500    1972.7872   -681.03788    301056.59    15.089247 
  194000    2035.7982   -680.81666    312486.74    15.073952 
  194500    2060.2246     -728.208    297498.78    15.448573 
  195000    1883.3502   -696.90293    300468.33    15.227045 
  195500     2068.806   -685.43448    314846.37    15.025318 
  196000    1882.7897   -705.73379    295733.06    15.226356 
  196500    1940.6154   -728.60397    299336.64     15.44457 
  197000    1867.8127   -681.62359    305349.19    15.249433 
  197500    2109.2157   -676.22811    308521.67    15.144183 
  198000    2016.8127   -682.88524     302615.8    15.146439 
  198500    2003.7375   -665.90647    303319.66    15.054016 
  199000    2057.0767   -671.57157    307839.04    15.012709 
  199500    1997.1375   -644.85314    308613.33    14.776857 
  200000    1921.0915   -612.33787    309331.37    14.664905 
  200500    2128.6325   -632.86548    291843.08    14.732465 
  201000    1962.6395   -605.62269    320298.64    14.637355 
  201500    1859.0253   -676.45888    305675.53    15.020428 
  202000    1968.1965    -663.7412    301990.81    14.894199 
  202500    1927.6223   -664.18331    303485.64    14.887227 
  203000    1982.8143   -652.63647    295953.04    14.885331 
  203500    1956.2771   -621.75653     312906.8    14.681579 
  204000     2023.527   -615.86966     303107.6     14.68226 
  204500    2098.5414   -628.81622    301399.43    14.701225 
  205000    1911.5739   -615.48965    311573.26    14.670452 
  205500    1935.2245   -634.12621    290010.25    14.781132 
  206000    1901.0274   -615.86053    317942.78    14.641065 
  206500    1970.7835   -710.31097    292961.99    15.094832 
  207000    1990.1958   -698.83393    306253.12    15.006059 
  207500    2163.4264   -710.34919    299904.75    15.070986 
  208000    1978.4099   -709.46519    296002.46    15.107657 
  208500    2099.3747   -684.33836     310242.4    14.924049 
  209000    1800.2054   -615.50479    293651.35    14.751087 
  209500    1933.2447   -603.05398    306511.88    14.649363 
  210000    1986.9371   -650.42761    291776.27    14.873895 
  210500    1932.9892   -620.76442    295096.36    14.746498 
  211000    1801.6289    -610.7068    305902.84    14.681856 
  211500    1860.5366   -646.83562    291386.93    14.861383 
  212000    2030.6712   -683.26939    295628.02    15.019657 
  212500    2097.5936   -712.41726    283563.73    15.188135 
  213000    1920.9983   -675.61505    309396.35    14.917633 
  213500    1961.1795   -664.93265    300427.28    14.877177 
  214000    1969.5536   -628.19769    303054.45    14.681291 
  214500    2044.0959   -608.59099    307473.12    14.665438 
  215000    2038.8225   -619.35779    298907.94    14.723982 
  215500    2075.3995   -621.53103    286257.49    14.696995 
  216000    1842.0422    -654.0467    303893.03     14.86062 
  216500    2093.7309   -699.40064    306023.72     15.00797 
  217000    1940.6511   -705.52631    294590.21    15.123746 
  217500    1796.5404   -635.22643    287925.19    14.771033 
  218000    2169.6859   -651.77044    297304.54    14.908482 
  218500    2049.5752   -675.18744    296374.42    14.981418 
  219000    1885.6431   -694.83692    306152.82    15.038902 
  219500    1916.8039   -680.09273    307108.75    14.947211 
  220000    1946.9442   -659.60353    307444.49    14.803216 
  220500    1880.5487   -686.65991    305181.72    15.036488 
  221000    2034.9971   -679.81783    293256.41    15.034012 
  221500    1950.0409   -682.97818    312600.03    14.955035 
  222000    1917.7229   -691.06633       317261    14.952241 
  222500    2067.4958   -697.53475    284286.82     15.04232 
  223000    1793.4921    -703.6731    298336.85    15.062085 
  223500     2111.073   -696.38883    302724.03    15.054788 
  224000     1904.714   -696.94467    301306.41    15.056857 
  224500    1971.2563   -721.94024    291882.29    15.242409 
  225000    1940.8925   -680.94321    298574.07    14.961155 
  225500    1860.3343   -685.33604    311018.55    14.931204 
  226000    1889.5597   -665.29099    293255.06    14.904732 
  226500    1996.7715   -694.84537    290891.88    15.035785 
  227000      2022.01   -681.46491    298685.83    14.973208 
  227500    2009.2266   -705.84003    298362.44    15.144436 
  228000    2072.1729   -690.59802     300942.4    15.119204 
  228500    1859.6273     -694.989    294895.17    15.222363 
  229000    1873.7795   -671.89073    301541.51    15.202085 
  229500      2017.43   -699.37406    301603.57    15.439461 
  230000    2015.5051   -615.22733    292772.31    14.807154 
  230500    1895.6834   -615.07892    294872.36    14.806123 
  231000    1846.4459   -618.90422    287365.28    14.792763 
  231500    1898.6278   -759.21832     286908.4    15.773773 
  232000    2137.2354   -705.14367    300470.68    15.177942 
  232500    2051.4543   -695.30047    306894.67    15.038162 
  233000    1973.9847   -705.93383    298998.17    15.219919 
  233500    1915.4302   -716.50466    292941.18    15.258568 
  234000    2101.0169   -668.38887    307806.19    14.921495 
  234500    1967.7044   -690.47152    302745.51    15.015046 
  235000     1953.562    -720.1384    298568.67    15.224436 
  235500     2033.237   -743.57728    302207.67    15.429322 
  236000    2016.1702    -737.2009    304484.32    15.503476 
  236500    1903.6277   -688.89229    299628.27    15.277825 
  237000    1882.3646   -694.50713    296759.47    15.228299 
  237500    2108.1153   -702.88566    307134.75     15.25355 
  238000    1923.8165   -751.93224    289798.79    15.736023 
  238500     1930.378   -750.84015    302206.72    15.549105 
  239000    2075.4327   -749.02516    300573.19    15.665717 
  239500    2152.6232   -744.93508    301990.55    15.587729 
  240000    2010.7594   -755.37284    293626.39    15.727086 
  240500    1921.5063    -734.0659    305497.87    15.567281 
  241000    2207.7394   -715.65626    305006.18    15.272439 
  241500    1882.2652   -685.12076    297410.41    15.174169 
  242000    2209.5086   -698.94293    295990.16    15.194526 
  242500    2044.5489   -728.65545     300016.3    15.446151 
  243000    1890.4141   -753.87883     304190.4     15.57811 
  243500    1953.2969   -759.92653    300786.25    15.609982 
  244000    2122.7496   -686.28122    300397.99    15.021602 
  244500    1797.2883   -705.67298    298971.61    15.100099 
  245000    1924.4233   -695.28988    299969.96    15.077338 
  245500    2132.6586   -683.07767    306251.36    14.999456 
  246000    2007.3872   -689.64695    302048.14    15.070317 
  246500    1890.1154   -705.71109    298055.58    15.275032 
  247000    2053.4016   -673.55141    300050.32    15.043539 
  247500    2024.8606   -657.72549    299616.87    14.840001 
  248000    2088.5322   -728.92637    297443.01    15.264178 
  248500    1930.5149   -749.15618    302572.23    15.512983 
  249000    2154.5652   -758.65698    299766.53    15.688823 
  249500    1870.1935    -763.3943    294260.89    15.738335 
  250000     1853.505   -743.11154    294192.75    15.735492 
  250500    2018.4729   -744.21878    298743.65     15.61738 
  251000    1870.0877   -699.95127    301086.48    15.418501 
  251500    2126.8987   -660.06732    301494.58    15.096792 
  252000    1856.4792   -651.95252     294883.5    15.167438 
  252500    2070.3752   -632.79557    302993.91    15.004258 
  253000     1907.646   -656.23118    304632.78    15.040761 
  253500    1967.5927   -639.88545    300736.75    14.936504 
  254000    1900.0898   -598.41479    306796.97    14.672908 
  254500    1941.9102    -617.8864    293050.74    14.708222 
  255000    1970.0277   -599.31797    309439.75    14.696793 
  255500    2155.5087    -607.5869    298679.71    14.718855 
  256000    2127.5778   -611.95482    296546.83    14.677694 
  256500    1988.2164   -612.32716       291708    14.758404 
  257000    1917.1879    -636.2023       292286    14.712469 
  257500    1888.9914   -629.49545    287795.39    14.734953 
  258000    1921.9754   -608.26854    327942.21    14.605644 
  258500    2063.0848   -644.60919    294654.74    14.735512 
  259000    1928.3386   -618.67806    315645.67    14.660894 
  259500    1921.3829   -616.00885    294036.54    14.708603 
  260000    1923.5711   -613.82936    298024.31    14.693862 
  260500    1969.7129   -623.91287    291616.24    14.759848 
  261000     2013.455   -611.67818    291391.67    14.716086 
  261500    1959.9211   -613.63001    300695.35    14.693602 
  262000    1881.3435   -604.47038    296469.57    14.712496 
  262500    2059.7248   -619.47624    293570.38    14.679495 
  263000    1892.1001   -727.61513       296348    15.229136 
  263500    2029.6831   -668.47141    307275.51    14.883524 
  264000    1991.6198   -711.52687       300545    15.087443 
  264500    2092.2869   -696.69407    304519.18     15.02163 
  265000    1990.4441   -610.52371    327397.52    14.594232 
  265500    2039.2219   -628.71489    293187.15    14.751841 
  266000    2138.8292   -628.80662    300468.56    14.747834 
  266500    1953.8352    -612.7501    290597.28    14.790177 
  267000    1996.7693   -619.51799    285957.06    14.709453 
  267500    1921.3051   -631.44869    295250.36    14.704809 
  268000    2096.2882   -610.53367    308370.29    14.661629 
  268500    1985.0967    -733.6311    302803.19    15.461205 
  269000    1993.2372   -767.04654    291162.02    15.788773 
  269500    1968.1047   -732.67128    297262.77    15.535206 
  270000    2110.8128   -731.29858    305441.73    15.534945 
  270500    1989.9636   -753.42959    304977.12    15.594612 
  271000    2058.4146   -753.75938    306218.29    15.611129 
  271500    2053.9563   -743.01311    304052.71    15.611854 
  272000    1906.4919   -726.02997    301244.06    15.466589 
  272500    1932.3071   -641.74142    295743.06     14.84418 
  273000     2224.114   -726.98269     301117.7    15.340362 
  273500    1977.5125   -745.06641    303188.96    15.581126 
  274000    2031.5506   -759.31559     300138.8    15.709977 
  274500    2200.3303   -757.49859    301306.66    15.683122 
  275000    2031.6079   -752.55098    300314.25    15.692548 
  275500    1888.2813   -750.85762    298090.32    15.690114 
  276000    2103.4799   -751.15489     295798.8    15.738852 
  276500    1946.4875    -759.3211    299344.02    15.646593 
  277000    2073.5075   -767.35608    297389.17    15.726528 
  277500    2128.1673   -703.71223    301380.37    15.162712 
  278000    1869.4176   -644.53985    296663.95     14.71729 
  278500    1844.5091   -650.83871    298713.82    14.725121 
  279000    2074.6775   -662.68073    297653.25    14.800454 
  279500     1948.971   -660.78541    295817.82    14.849071 
  280000    2006.6547   -683.81404    305834.83    15.018356 
  280500    1994.4673   -756.05846    303604.59    15.606198 
  281000    1979.9881   -757.15776    297147.19    15.751952 
  281500    2000.1348   -682.90231    302748.63    15.274308 
  282000     2061.411   -722.58239    296282.31    15.545494 
  282500    1935.0938    -727.1557    292383.17    15.589952 
  283000    1893.8966     -735.877     297596.7    15.597694 
  283500    1885.7547   -748.98419    299775.58     15.55674 
  284000    2118.5697   -631.23517    317948.28    14.679506 
  284500    2045.5036   -650.35545    289972.87    14.784016 
  285000    2174.0896   -661.66788     297378.2    14.803885 
  285500    1900.1822    -759.5472    291104.07    15.579096 
  286000    2106.6713   -789.90956     300970.5    15.722804 
  286500    2163.2986    -801.0039     290904.8    15.795432 
  287000    2055.0583   -795.17172    303947.65    15.755334 
  287500    2154.0172   -786.00668    304993.78    15.703492 
  288000    1996.1335   -804.59961    286971.29    15.780021 
  288500     2167.394   -795.93098    308522.12    15.749129 
  289000    2053.3329   -793.82829    312386.84    15.719459 
  289500    2129.6315    -793.7757     307327.4    15.769482 
  290000    2006.4549   -796.54321    304159.14    15.764751 
  290500    1954.9728   -763.63195    299514.93    15.551851 
  291000    2195.7374   -733.58954    303182.11    15.056828 
  291500    2117.7287   -712.04232    300399.69    14.933902 
  292000    2100.7949   -689.17518    306989.81    14.802454 
  292500    2082.8543   -703.98718    302552.58     14.85808 
  293000    1915.7815   -714.59257    299422.62    14.911522 
  293500    1873.6196   -647.90054    290529.58    14.726503 
  294000    1808.5075   -637.11897    302394.56    14.671114 
  294500    1971.3067   -639.05818    304857.26    14.662673 
  295000    1904.5004   -760.53551     294932.4    15.452494 
  295500    2188.0728   -763.50569    297505.43     15.41026 
  296000    1971.1279   -702.01323    301366.85    14.894512 
  296500    1917.7696   -701.84943    303418.53    14.845349 
  297000    1918.2681   -705.78779    304334.79      14.8283 
  297500    1980.4183   -719.33951    288801.89    14.926376 
  298000    1925.0027   -741.74595    303757.57    15.198105 
  298500    1958.3155   -726.62513    295178.03    15.112257 
  299000    1873.5131   -717.28502    294985.03    14.890771 
  299500    2089.8183   -702.19775    301610.89    14.880149 
  300000    1971.9988   -745.97481    306814.38    15.208932 
  300500    2068.1169   -742.02872    303928.62     15.18643 
  301000    1990.6889    -692.9014     299888.3    14.808301 
  301500    2014.0499   -709.57547    291484.32    14.875359 
  302000    2066.7287   -700.07751    302645.07    14.806106 
  302500     1886.033   -735.88079    295742.51     15.18105 
  303000    2194.8809   -680.63426    315472.57    14.729633 
  303500    2113.8616   -698.27113    303460.55    14.828697 
  304000    1970.4154   -695.55735    301898.36    14.820889 
  304500     1919.953   -707.22292     304959.4     14.83016 
  305000    2034.3493   -689.16218     306178.9    14.818845 
  305500    1940.7288   -700.21496    298362.39    14.858447 
  306000    2043.5117   -715.42784    290952.93     14.90794 
  306500    1951.4106   -706.10014    302543.45    14.838615 
  307000    2029.2501   -703.36989    298435.88    14.832846 
  307500     1930.084   -685.74687    305830.96    14.746412 
  308000    1924.2464   -769.68442       288530    15.389951 
  308500    1922.8507   -696.72633    297748.23    14.853755 
  309000    2013.9488   -704.80342    288601.89    14.875297 
  309500    2006.4859   -692.47531    310820.75    14.779891 
  310000    1964.9202   -704.65587    304743.43    14.833932 
  310500     2014.578   -711.86279    294727.12    14.900669 
  311000    1820.1958   -807.06825    278310.94    15.795422 
  311500    1945.2607   -798.85388    307416.73    15.714785 
  312000    1930.6115   -795.75804    281758.07    15.784966 
  312500    1858.2118   -715.58479    301401.46    14.956293 
  313000    1942.9864   -699.79772     299916.7    14.833893 
  313500    1893.1625    -715.0799    302841.14    15.038277 
  314000    1958.3089   -749.45883    305481.18    15.302533 
  314500    1960.6979   -774.87203    293397.92    15.529197 
  315000    1974.6301   -739.35012    303768.79    15.280554 
  315500    2063.1554   -755.59667    310913.05    15.255506 
  316000     2052.596   -772.71809    298926.28    15.292607 
  316500    2023.7982   -770.65622    298750.22     15.28882 
  317000    2157.5081   -775.93253    294329.82    15.361867 
  317500    2085.7464   -795.72826    294532.25    15.507871 
  318000    1970.0756   -685.35299     314062.8    14.741353 
  318500    2176.3537   -697.94807    307674.95    14.814298 
  319000    1934.1905   -695.40737    302947.92    14.841091 
  319500    2058.5903   -716.49281       295527    15.064484 
  320000     1939.601   -644.98719    303056.92    14.738864 
  320500    1901.5936   -633.54508    298838.92    14.667324 
  321000    2095.2183   -642.09949    300740.02    14.715281 
  321500    2062.7712   -677.29754    300699.25    14.765737 
  322000     1996.185   -804.07593    268930.95    15.812652 
  322500    1911.1031   -798.06455    290726.78    15.772892 
  323000    2262.5704   -801.59842    309672.05    15.697022 
  323500    1899.7941   -787.05228    307134.75    15.748283 
  324000    1989.7162   -781.67012     306147.3    15.732147 
  324500     1959.234   -790.05674    300759.45    15.723734 
  325000    1942.3595   -794.94443     312417.6     15.66262 
  325500    1920.7905   -787.00986    308386.74    15.719812 
  326000    2090.6776   -753.16253    301314.26    15.488724 
  326500    2090.4167   -745.43916    298117.61    15.517846 
  327000    1924.3083   -753.82091    302893.37    15.595804 
  327500    2182.1944   -751.89739    305241.38    15.553181 
  328000     1948.482   -757.86915    304776.59    15.572534 
  328500     1879.001   -709.59035    295748.63    15.153025 
  329000    1942.9911   -653.85712    292447.47    14.832791 
  329500    2251.4775   -652.63183    299005.52    14.806851 
  330000    2129.5517   -646.04446    300451.21    14.793606 
  330500    2233.7713   -777.09754       301051    15.712534 
  331000    1960.7321   -770.57736    299263.17    15.715945 
  331500    1811.4613   -760.77796    297870.95    15.651195 
  332000    2023.0962   -759.84663    297824.86    15.598983 
  332500    2017.6621   -771.51731    298065.53    15.687598 
  333000    1942.5792   -786.81621    302406.04    15.740075 
  333500    1959.8498   -716.04092    297379.36    15.137493 
  334000     1884.444   -632.11901    302816.12    14.728336 
  334500    1941.7632    -633.7128    310616.34    14.668797 
  335000     2049.992   -641.30307    311001.03     14.62727 
  335500     2072.741   -653.52432    293477.19    14.770828 
  336000    1858.7194   -639.74853    300378.44    14.748498 
  336500    2121.8022   -648.38934    301550.37    14.689454 
  337000    1989.0011   -724.76978    296929.66    15.201704 
  337500    1900.6714   -746.35485    299008.77    15.362262 
  338000    2002.0498   -676.13962    301107.01    14.814042 
  338500    1907.9291   -701.20151    301831.34    15.026716 
  339000    1948.8423   -696.12663    296350.29    15.000965 
  339500    2148.2057   -692.59379    307708.34    15.188897 
  340000    1872.2963   -731.43581    299699.16    15.268143 
  340500    2010.5216   -654.99066     299057.3    14.923518 
  341000    2051.4622   -638.34777    303017.31    14.706189 
  341500     1909.711   -654.53654    295487.78    14.766462 
  342000    2027.4522   -718.00692    292621.36    15.074197 
  342500    2000.0467   -711.77346    300889.83    15.052372 
  343000    1916.4986   -702.34369    300553.81     14.98927 
  343500    2140.8075   -689.03268    301839.74    14.971241 
  344000    2012.7014   -647.89051    300346.71    14.744277 
  344500    2028.9306   -648.30676     294661.8    14.747576 
  345000    2027.8556   -733.43477    299130.27    15.354366 
  345500    2015.2488   -732.15795    298210.08    15.285918 
  346000    1900.4828   -646.34254    286092.41    14.701419 
  346500    2032.1662   -707.77647    301150.76    15.035701 
  347000    2218.7566   -706.26994    301707.31    14.961963 
  347500    2035.3144   -749.07369     301596.5    15.270691 
  348000    2022.3809   -695.08324    299287.26    14.985924 
  348500    2007.9021   -650.38235    297984.37    14.763404 
  349000    2070.1107    -644.1488    308295.58    14.704762 
  349500     1895.861   -687.92309    302357.15    14.970144 
  350000    1920.3725   -724.32546    296473.36    15.270349 
  350500    2112.1139   -687.75464    304193.37     14.91316 
  351000    1995.9117   -647.14447    299013.38    14.774889 
  351500    1989.5214   -644.76183    303149.83    14.701866 
  352000    2127.0131   -763.50918    301855.42    15.293571 
  352500    2094.1207   -783.95572    302417.35    15.722265 
  353000    1864.2763   -772.86169    304830.31     15.72982 
  353500    1895.4939   -784.29898    303607.01    15.722569 
  354000    1810.7978    -746.0476    302066.58    15.490494 
  354500     1863.832   -627.87707    300997.68    14.707082 
  355000    2069.6761   -656.14882    290089.71    14.781802 
  355500    1962.6316   -635.81234    303744.53    14.752371 
  356000    1941.7835   -646.36181    298445.79    14.800077 
  356500    2180.0893   -676.87739    301101.72    14.971543 
  357000    2017.6276   -709.97039    306888.24    15.213668 
  357500    1939.1185   -703.00658    293544.92    15.166029 
  358000    1911.5055   -647.52409    296629.76    14.718729 
  358500    1936.1887   -744.16245    300007.27    15.625911 
  359000    1935.3398   -758.48032    301472.48    15.706353 
  359500    1947.8522   -745.74359    302932.28    15.594739 
  360000    1937.0401    -639.2053    294328.69    14.798258 
  360500    2134.4723   -641.52243    289887.94    14.731278 
  361000    2050.4378   -637.93969    303545.99    14.702688 
  361500    2055.4802    -652.7973    295309.03    14.833524 
  362000    1963.8921   -665.49294    299236.29    14.888394 
  362500    2026.7654   -757.40246     297921.5    15.577282 
  363000    1874.4059   -766.25428    301160.73    15.742712 
  363500    1844.8898   -760.38593    298233.98    15.504542 
  364000     2079.251   -696.39907    299634.98    15.045931 
  364500    2267.4956   -733.93036    299636.35    15.301935 
  365000    1917.9061   -649.16024    292525.28    14.697218 
  365500    1806.8581   -712.27549    291527.96     15.16885 
  366000     1982.043   -714.70493    299233.24    15.194911 
  366500    1962.2706   -659.92512    287544.09    14.807309 
  367000    2088.3354   -634.49699    308402.05     14.66244 
  367500    1830.0772   -647.61448    304776.07    14.635543 
  368000    1817.6205   -717.18423    302995.98    14.879957 
  368500    1910.8796   -695.46935    298755.13    14.827207 
  369000    2044.1009   -718.33048    292597.49    14.940376 
  369500    1919.8733   -733.13717    300780.24    14.954253 
  370000    1955.6529   -799.64857    305469.65    15.608544 
  370500    1918.5965     -803.521    304916.64     15.71153 
  371000    1834.7979   -793.73925    313316.59    15.742083 
  371500    1804.0175   -800.65981    274720.01    15.813394 
  372000    1974.3469   -676.68694    297509.53    14.798622 
  372500    2065.4658    -643.9445    303439.59    14.617576 
  373000    2111.6359   -686.79929    303847.91    14.793612 
  373500    2142.8274   -679.47643    302033.19    14.776841 
  374000    2065.2973    -713.1318    296616.04    15.018322 
  374500      1861.59   -761.08158    293778.69    15.435834 
  375000    2005.1492   -633.04947    312996.01    14.631578 
  375500    1975.4771   -642.33858    304135.48    14.674745 
  376000    2105.4929   -652.64747    299545.83    14.750734 
  376500    2134.7537    -731.3556    303866.14    15.127003 
  377000    1876.6923   -712.42844    299554.71    15.125236 
  377500    1967.5558   -685.33842    306661.24    15.135915 
  378000    1997.1538   -695.27279    304713.18    15.047076 
  378500    2133.7106    -705.2312    295690.59     15.12405 
  379000    1925.3195   -701.51683    298156.37     15.06376 
  379500      2005.07    -670.8524    309113.84     14.80985 
  380000    2109.2281   -693.15618    306367.31     14.96866 
  380500    1800.9372   -655.13036    296275.59    14.933914 
  381000    2122.4559   -702.87982    300607.07    15.396154 
  381500    2015.2947   -699.78211    301313.84    15.423837 
  382000    1947.4087   -712.72028    299866.81    15.490459 
  382500    2097.2816   -703.05019     296957.6    15.468949 
  383000    2116.2484   -719.73121    303157.74    15.470863 
  383500    1939.6335   -695.00314    313033.22    15.404826 
  384000    2015.9656   -695.41689     307743.5    15.429623 
  384500     2025.682   -678.94913    300063.77    15.261092 
  385000    1984.2057   -707.11588    300192.27    15.314551 
  385500    1962.3854   -690.19028    296780.47    15.254771 
  386000     1921.819   -698.97159    296401.43    15.446653 
  386500    1991.5326   -664.54429    294918.42    15.206131 
  387000    2073.7637   -761.65612    308052.76     15.71289 
  387500    2084.1437   -692.51377    299089.45    15.079221 
  388000    2002.3133   -641.16447    295708.22    14.771093 
  388500    2171.6252   -651.94481    304601.63    14.744625 
  389000     2022.018   -648.06934     296568.5    14.755031 
  389500    1914.4885   -647.16423    290017.04    14.772638 
  390000    1908.3049   -663.07744     286122.4    14.866597 
  390500    2005.5609     -672.111    297665.11    14.813266 
  391000    2070.2039   -697.92456    306451.56    14.934745 
  391500    2010.1361   -620.34281    327519.48    14.587019 
  392000    2048.1707   -700.96256    300774.94    15.033862 
  392500    2043.3327   -653.01267    305011.87    14.709358 
  393000     2106.648   -648.44497    292456.03    14.761096 
  393500    1995.6451   -654.37341    299798.41    14.759201 
  394000    2215.0789   -688.56138    302221.43    15.004963 
  394500    1994.6135   -800.71174     289352.7     15.81265 
  395000    1910.2292   -797.79527    291145.47    15.785309 
  395500    1919.8333   -769.50168    296536.18    15.665285 
  396000    2024.3069   -711.64188    298092.39    15.218372 
  396500    2155.3815    -705.3061    301962.58    15.108312 
  397000    2071.4635   -723.72888    300108.51    15.226498 
  397500    2135.3335   -711.18585    300205.98    15.252512 
  398000    2019.9926   -759.43807    307356.32    15.717305 
  398500    2058.8037   -742.28871    300412.06    15.480337 
  399000    1961.9854   -656.75736    300835.99    14.871641 
  399500    2115.9382   -665.53532    298272.78    14.891564 
  400000    1955.4495   -777.35454    307313.66    15.708247 
  400500    1905.1588   -787.72997    310982.92    15.766823 
  401000    1947.1227   -794.91917    296412.32    15.772661 
  401500    2062.5178   -787.16236     319177.6    15.711833 
  402000    2094.8666   -761.83408    305646.61    15.690175 
  402500    1943.6925   -766.21614    302189.93    15.795903 
  403000    1963.2615   -754.93145    302144.01    15.793837 
  403500    2145.1001   -763.86782    291382.79    15.760686 
  404000    2058.5931   -778.32215     299019.8    15.796615 
  404500     2078.384   -780.55051    306852.29    15.692195 
  405000    1992.0361   -800.93613    298136.72    15.787618 
  405500    2042.7922   -795.56113    311983.55    15.693961 
  406000    1718.5333    -803.5665    302293.19    15.630835 
  406500    1932.2065   -791.24275    313246.06    15.717465 
  407000    1853.8926   -779.49559     300543.4    15.727467 
  407500    2070.7603   -719.69132    300975.47    15.236208 
  408000    1859.2996   -656.11705    300970.45    14.777582 
  408500    2076.2778   -674.40649     302971.6    14.853243 
  409000    1876.5758   -640.47608    294789.07    14.745101 
  409500    2071.3637   -643.25348     306303.6    14.599984 
  410000    1743.4452   -628.11465    310049.22    14.651049 
  410500    2078.9884   -655.40476    294000.48    14.673566 
  411000    1989.4816   -641.87148    303775.64    14.615457 
  411500     1834.871    -735.9961    302638.71    15.303086 
  412000    2020.6505   -763.34092    296165.42    15.334763 
  412500    1921.8439   -745.29998    298133.81    15.366109 
  413000    1987.5404   -764.60193    298809.18    15.514605 
  413500     1872.187   -768.77076    287322.52    15.427822 
  414000     1944.107   -708.99317    290528.14    14.903839 
  414500    2055.5704   -635.95157    302489.07    14.634038 
  415000    2004.2111   -650.80564    294438.79    14.758915 
  415500    2002.9519   -645.74254    291748.28    14.749435 
  416000    1979.8548   -658.25078    295651.08    14.766141 
  416500    1951.5505   -661.53743     291996.9    14.734123 
  417000    1803.2051   -650.51184    290835.57    14.740542 
  417500    1895.3499   -712.12135    294842.03    15.110654 
  418000    2005.0244   -672.42927    305567.43    14.829398 
  418500    2069.2923   -700.59929    304611.22    15.067869 
  419000    2112.3336   -721.55024    299267.72    15.241179 
  419500    2066.8274   -719.20385     296719.5    15.252415 
  420000     1987.795   -707.02485     306210.8    15.069571 
  420500    1802.6312   -647.29211    295667.19    14.752697 
  421000    2109.5027   -725.66875    298280.05    15.206182 
  421500    2067.8962   -696.31994    302980.47    14.940044 
  422000    2119.6977   -636.80217    297084.97    14.657899 
  422500    1824.4131   -747.43742    299304.08    15.437427 
  423000    2139.5512   -788.66855    306194.42    15.769542 
  423500    2077.7845   -795.06322    311415.83     15.70021 
  424000    2101.2091   -793.35757    296625.37    15.773109 
  424500    2109.7323    -793.9476    294385.82    15.800377 
  425000     1828.577   -776.96429    301940.74    15.710245 
  425500    2037.7414   -702.88744    303940.49     15.13855 
  426000    2149.8377   -673.78017    305923.76    14.844709 
  426500    1972.1055   -712.03432    293079.76     15.00059 
  427000    2095.2315   -721.92666    293174.39    14.950938 
  427500    2124.8236   -743.94151    303421.12     15.07678 
  428000    1923.3216   -799.41534    306015.87    15.743979 
  428500    1775.3022   -798.49825    297154.02    15.787678 
  429000    2015.3906   -793.64658    302459.24    15.763762 
  429500    1862.5233   -796.43167    288920.08    15.793079 
  430000    1950.7525   -782.25711    307249.32    15.712524 
  430500    1973.2731   -794.41718    280526.52    15.804723 
  431000    2107.3998   -780.31076    313841.58    15.679748 
  431500     2063.209   -781.96777    303363.34    15.742395 
  432000    1878.1625   -783.83315    280749.74    15.821362 
  432500    1747.2573   -778.38337     305701.1    15.736287 
  433000    2081.6295   -793.11123    305355.97    15.751228 
  433500    1916.8727   -786.13683    290485.73    15.747096 
  434000    2028.1637   -803.27131    306712.22    15.737137 
  434500    1984.3803   -798.41513    283539.58    15.787498 
  435000    1977.8838   -800.07855    305297.64     15.75264 
  435500    2011.3037   -802.75407    287583.34    15.802353 
  436000    1906.4795   -786.05233    307573.97    15.762659 
  436500    2200.0904   -785.93409    318084.32    15.723262 
  437000     1956.392    -790.5375    296520.51    15.760156 
  437500    2133.3062   -785.59759    292062.41    15.760921 
  438000    1938.7493    -782.7223    305930.27    15.733889 
  438500    1800.3444   -772.94351    303751.44    15.803129 
  439000    1982.5283   -757.95549    296213.51    15.623614 
  439500    1990.9857   -765.50073    291702.91    15.810938 
  440000    1810.9991   -732.04555    298097.92    15.391696 
  440500    2019.1269   -654.34194    297605.31    14.877051 
  441000     2068.027   -687.52445    303457.16    15.091834 
  441500    1950.4522   -764.68093    300375.08    15.830365 
  442000    2100.3962   -760.93331     299540.5    15.770886 
  442500    1860.4624   -771.75107    294355.09    15.702773 
  443000    2076.3568    -746.8762    302260.59    15.433697 
  443500     1763.364   -706.41577    299075.27    15.120546 
  444000    1946.6256   -714.35282    295073.41     15.13523 
  444500    2025.8137   -675.46044    300059.36    14.874166 
  445000    1987.8035   -698.08576    303625.15    15.062958 
  445500    2042.8384   -728.37923    306020.32    15.330178 
  446000    1965.7025   -701.25929    299184.41    15.098884 
  446500    2180.0167   -702.49056    300709.08    15.060157 
  447000    1926.6959    -685.6118    305145.87    14.977708 
  447500    1821.2103   -645.40408    292193.68    14.804903 
  448000    1908.5963   -624.64371    304889.32    14.661318 
  448500    1845.4491   -722.90302    295243.44    15.338793 
  449000    2139.2874   -760.20353    291280.91    15.640786 
  449500    2116.8242   -793.28949    265136.71    15.813722 
  450000    2233.3175   -682.46308    303596.48    14.935691 
  450500    2107.2891   -729.56285    300258.51    15.302791 
  451000    1954.4186   -746.34339    302172.61     15.46285 
  451500    1866.2285   -668.44629    294281.48    14.907486 
  452000    1919.2924   -637.29354    299696.28    14.714442 
  452500    1753.6581   -741.62489    296381.36    15.288598 
  453000    1960.5069   -793.74836    312682.56    15.741572 
  453500    1912.1423    -802.0029    302896.79    15.725107 
  454000    1985.9207   -784.22733    290090.36    15.492348 
  454500    2117.0385   -716.79083     299440.9     14.89255 
  455000    1905.7133   -701.34056     294457.4    14.883443 
  455500    1889.9541   -707.85241    305602.21    14.959097 
  456000    2072.9965   -635.99209    309163.01    14.593019 
  456500    1971.8722   -726.39456    302551.67    15.342511 
  457000    1923.8415   -761.13342    302722.51    15.649858 
  457500    1889.6764   -764.10934    291077.04    15.818102 
  458000    2086.0681   -726.99767    297304.28      15.3562 
  458500    1953.4625   -681.13951    304726.17    15.066273 
  459000    2028.4095   -765.80198    306725.74    15.724273 
  459500    2231.2827   -766.49431    291871.95    15.853342 
  460000    1868.0988   -761.63297    301047.65    15.672311 
  460500    2071.7492    -752.3655     296761.7    15.616405 
  461000    1876.9153   -675.37052    303659.14    14.971675 
  461500    2041.7878   -637.05011    303614.54    14.848243 
  462000    2112.8404   -616.82099    311413.02    14.662979 
  462500     2029.308   -751.08187    298362.59    15.507114 
  463000    1831.3144   -654.61785    293962.57    14.866519 
  463500    2078.6525   -718.36449    297901.05    15.347155 
  464000    2151.1948   -742.87747    300678.71     15.38883 
  464500    2107.5892   -697.10242     311358.3    15.021073 
  465000    2088.5982   -681.52934    301423.75    14.910618 
  465500     1955.076   -642.54268    299419.42    14.765681 
  466000    1862.5915   -648.80516     300356.7     14.87747 
  466500    2058.5806   -636.55742    311805.88    14.791017 
  467000    2078.6538   -643.70311    321187.68    14.769001 
  467500    2075.8398   -645.68814    318797.51    14.749411 
  468000    1983.8303   -651.13155    299524.25    14.771383 
  468500    2016.3314   -614.93538    297212.69    14.659618 
  469000    2027.8213   -621.95601    286103.94    14.684111 
  469500    1982.8712   -674.00802    301144.98    14.985684 
  470000    2143.9105   -683.07326    302050.14    14.959243 
  470500    2065.1536   -675.22238    302096.51    14.974012 
  471000    1906.7027   -591.23702    329912.92    14.589746 
  471500    2075.1654    -627.8294    292706.56    14.793741 
  472000    2046.2152   -651.16517    286332.56    14.826099 
  472500    1926.0672   -644.02152    303573.58    14.756594 
  473000    2090.7532   -613.59905    305796.92    14.602858 
  473500    2071.4744   -622.59494    294927.44    14.834396 
  474000    1826.8971   -653.34173    295601.43    15.118169 
  474500      1966.15   -627.94256    298190.78    14.852876 
  475000    1964.2335   -593.84061    311754.63     14.66496 
  475500    1974.6108   -582.20672    301638.29    14.689079 
  476000    2100.0557   -611.57625    304819.66    14.833863 
  476500    1906.9823   -645.80327    302931.53    15.080713 
  477000    2116.3388   -679.85892    297766.79    15.244475 
  477500    2059.7809   -701.36542    299614.56      15.5007 
  478000    1863.7718   -643.24946    292340.02    14.963533 
  478500    2159.3689   -636.51003    302005.02    14.878853 
  479000       1864.5    -675.2437    297575.22    14.932036 
  479500     2097.859   -648.70873     311186.1    14.733006 
  480000    2063.7895   -678.91625    301692.65    14.907937 
  480500    1832.9391   -664.71988    298776.24     14.84103 
  481000    1900.9387   -653.84752    294886.65    14.848369 
  481500    1989.4462   -668.97866    302041.05    14.860397 
  482000    1982.8045    -679.5809    305302.82    14.916182 
  482500    2037.4972   -674.80219    301246.46    14.964213 
  483000     2072.055   -645.45355    302089.23    14.882519 
  483500    2068.1102   -649.51194    306123.72    14.994787 
  484000    2051.6279   -636.73251     300407.6    14.985522 
  484500     2181.033   -642.61382     312050.8    14.884171 
  485000    1941.7091   -718.54272    298217.87    15.308171 
  485500    1934.2683   -747.04273    304714.57    15.524777 
  486000    1966.1453   -745.45278     302786.3    15.605826 
  486500    2074.1076    -768.0235    285072.31    15.901197 
  487000    2056.5129   -761.52275    308351.98    15.790574 
  487500    2044.2228   -764.64319    298027.62    15.835246 
  488000    1871.7466   -755.04004    300691.17    15.681235 
  488500    2167.2645   -727.11044    300911.35    15.415587 
  489000    2028.1229   -629.01392    307934.94    14.703999 
  489500    1969.0019   -614.68619    305013.05    14.705147 
  490000    2025.3074   -629.98585    297697.49     14.80033 
  490500    1997.7692   -674.81052    303576.36    15.110383 
  491000     2054.702   -763.49497    309330.18    15.745599 
  491500    1934.5223    -673.4936    297952.65    14.997266 
  492000    1932.4129    -636.5171    296603.62     14.68799 
  492500    2049.7826   -633.99265    293349.68    14.756108 
  493000    2212.9298   -705.81997    297080.23    15.187405 
  493500    1806.0547   -761.70393    297991.76      15.6414 
  494000    1964.3806    -772.8738    302061.85    15.791746 
  494500    2111.1131   -767.07445    302398.24    15.796544 
  495000     2342.328    -702.5095    303118.64    15.248207 
  495500    1899.8681   -695.33692    297406.92    15.257895 
  496000    2024.5943   -767.77067    303529.43    15.642928 
  496500    1986.6991   -742.87265    303892.05    15.535397 
  497000    1904.1489   -725.00779    295232.37    15.281668 
  497500    1888.2043   -644.51199    306990.98    14.649414 
  498000    1952.0726   -696.30677    303527.94    14.895123 
  498500    2137.4077    -723.0154    293524.45    15.010957 
  499000    1939.2093   -661.38126       297778     14.76243 
  499500    2009.7516   -700.20652    303207.72    15.065884 
  500000    1971.0036   -701.11014    304009.52    15.156007 
  500500    1833.1378   -728.35256    298736.38    15.366776 
  501000    1887.7659   -643.41129    300192.41    14.850013 
  501500    2053.2564   -685.62178    298705.06     15.19063 
  502000    2038.8604   -700.33389    300512.13    15.278114 
  502500    2031.1633   -698.74876    300666.92    15.148208 
  503000    2113.1814   -677.89059    310334.12    14.915484 
  503500    1887.3523   -706.55178    298396.76    15.075925 
  504000    2155.4948   -700.28785    300075.51    14.994372 
  504500    2006.9775   -702.53906    299714.73     15.11907 
  505000    1935.4398    -788.6001    303805.45    15.762277 
  505500    1904.4437    -766.9083     301913.5    15.716502 
  506000    2065.0022   -757.20373    303481.55    15.637093 
  506500    1908.8088   -765.12412     297118.6    15.812147 
  507000    2004.0624   -769.90125    285242.54    15.801026 
  507500     2007.054   -763.49791    299244.39     15.76492 
  508000    1915.8718   -766.22514    300704.07    15.733794 
  508500    2003.5086   -761.06532    304360.87    15.789988 
  509000    1904.4263   -756.54507    298932.77    15.785113 
  509500    2065.0596   -758.96412    308688.17    15.764633 
  510000    1982.2373   -718.81322    298485.94    15.412164 
  510500    1984.2112   -679.03559    294791.51    15.047381 
  511000    2001.4644    -721.8982    297736.61    15.485542 
  511500    1980.8391   -727.41669    303433.55    15.451171 
  512000    2135.6749   -623.79488    300210.12    14.734604 
  512500    1775.4608   -627.93628    307571.93    14.667947 
  513000    2193.8647   -665.17795    296964.99    14.787658 
  513500    1896.5798   -647.52557    298930.96    14.722649 
  514000    2062.3035   -678.13927    300828.74    14.852319 
  514500    1913.6331   -740.10428    302172.94    15.414723 
  515000    1999.4555   -767.73782    301468.39     15.74408 
  515500    2045.9547   -767.30855    284314.62    15.842668 
  516000    2061.3309   -679.47353    309433.02    15.100836 
  516500    1933.8071   -657.41148    287918.88    14.904808 
  517000    2043.9463   -647.17736    308395.94    14.791576 
  517500    1960.4224   -627.33886    301970.97    14.675986 
  518000    1811.0597   -648.18589    295853.97    14.803147 
  518500    1889.1975   -679.58193    297236.58    15.042471 
  519000    1905.7517   -674.90409    302273.65    14.996541 
  519500    1951.7101   -639.07505    307524.36    14.626753 
  520000    2054.8077   -713.46431    289064.35    15.112325 
  520500    2070.5796   -678.97422    310111.74    14.925025 
  521000    1820.0375   -717.39572    294445.95    15.116957 
  521500    1953.4214   -653.30166    299260.88    14.786051 
  522000    2032.6417   -744.27222    304362.56    15.334216 
  522500    2049.8176    -759.6949    303839.73     15.29169 
  523000     1875.214   -756.60295    296006.74    15.420446 
  523500    1884.9672   -671.55796    303140.33    14.757409 
  524000     1957.105   -642.85921    302910.76    14.590695 
  524500    2017.9643   -657.52511    290483.78    14.647521 
  525000     2144.159   -681.93285    306269.64     14.79838 
  525500    1933.3807   -717.65528    296499.17    14.974983 
  526000    1845.1223   -759.79982    299975.42     15.23255 
  526500    2009.3647   -759.32337    296601.87    15.422988 
  527000    2003.2142   -751.84556    303816.79    15.343318 
  527500    1956.7432   -759.31424    298895.86    15.340581 
  528000    1971.9607   -694.15634    299788.05    14.843266 
  528500    1995.9274   -664.20958    298110.88    14.815234 
  529000    1937.2196   -708.22897       293183    15.203479 
  529500    2024.4294   -604.67177     322433.6      14.6074 
  530000    1950.2831    -737.8741    295971.13    15.409782 
  530500    1889.0269   -698.52086     295850.5    15.139721 
  531000      2207.19   -702.66398    303971.97    15.064062 
  531500    1921.6739   -695.32926    301133.04    14.980856 
  532000    2044.3547   -727.84208     296801.7    15.218888 
  532500    2002.5708   -787.06109    282365.27    15.824537 
  533000    1863.1069   -742.46481    292397.66    15.515691 
  533500    1851.9244   -681.55411    303161.51    15.083164 
  534000    1855.1803   -676.78933    300093.64    15.048563 
  534500    2016.8852   -738.64826    297564.54    15.517328 
  535000    1998.2516   -754.77937    302150.88    15.335001 
  535500    2016.1313   -761.99235    299699.56    15.357769 
  536000    1827.3129   -748.20055     302961.4    15.352388 
  536500    2036.6366   -737.53248    302835.32    15.410912 
  537000    1958.5551   -748.20553    304991.45    15.364957 
  537500    2042.0957   -746.81937    309574.76    15.301683 
  538000    2078.1138   -786.56778    286552.42    15.796891 
  538500    2022.6562   -777.26642    314365.47    15.677046 
  539000     1810.328   -786.09733    283959.95    15.813021 
  539500    1970.5455   -793.26112    278695.97    15.821427 
  540000    2007.3554    -782.4556    306858.93    15.708422 
  540500    2114.3267   -779.51544    290446.73    15.807511 
  541000    2229.4314   -786.85079    305583.85    15.728164 
  541500    1987.7974   -793.69726    310507.03    15.769238 
  542000    1952.7504    -786.0433    313081.23    15.756921 
  542500    2224.4183   -780.82929    313338.78    15.655313 
  543000    1762.4437   -668.19173    294145.84    15.020535 
  543500    1911.0451   -634.53639    309489.56    14.965925 
  544000    2065.9198   -760.11462     287442.3    15.762776 
  544500    2026.6673   -756.69096    289356.98    15.710753 
  545000    2213.6868   -771.78435    303740.13    15.712567 
  545500    2028.3977   -771.70515    287462.07    15.678708 
  546000    1921.7149   -650.61565    288934.07    14.679423 
  546500    1843.5585   -658.10361    295533.04     14.63566 
  547000    2011.5381   -743.15518    299459.77    15.088523 
  547500     1827.949   -751.99638    306113.72    15.287939 
  548000    2115.5388   -763.82521    303216.92     15.29418 
  548500    2113.6786   -762.64079    300455.92    15.318106 
  549000    2082.9147   -767.20819    301013.88    15.437007 
  549500    2091.4273   -746.51347    302087.92    15.092734 
  550000    2026.7813   -654.44058    300647.44    14.622499 
  550500    1961.6999   -691.27045    302788.84    14.868067 
  551000    1968.7936   -693.83025    305949.82    14.979219 
  551500    2073.3506   -699.49617    297260.79    15.024005 
  552000    2020.4654   -663.78808    297008.22     14.85927 
  552500    1869.4172   -744.42796    298569.42    15.510592 
  553000    2026.2399   -761.23806    301962.08    15.703932 
  553500    1996.0575   -772.13575    307811.23    15.762087 
  554000    1934.0321   -712.55983    298955.82    15.195024 
  554500    2126.6694   -712.61884    297422.02    15.177463 
  555000    2025.5804    -696.6818    302958.72    15.105243 
  555500    1992.8755   -717.89337    297973.87     15.39539 
  556000     2056.691   -751.10309    309306.65    15.707633 
  556500    2015.2244   -758.58929    303114.56    15.742368 
  557000    2082.1803    -760.5519    303795.38    15.593428 
  557500    2078.9361   -743.62399    301370.63    15.556405 
  558000    2043.3507   -731.65472    296073.36    15.454975 
  558500    2058.6585    -748.2575    300605.69    15.558866 
  559000    2302.3422   -772.17602    295995.64    15.546785 
  559500    1805.0364   -665.75199     292098.7    14.863011 
  560000    2181.4343    -680.1363    304397.36    14.867214 
  560500    2010.6172   -769.14211    311911.54    15.739894 
  561000    1705.1574   -740.61009     288020.1    15.560911 
  561500    2093.2552   -743.40179    302006.25    15.366829 
  562000    2175.3909   -761.19874    300847.37    15.770269 
  562500     2047.222   -770.04751    304539.56    15.800211 
  563000    2093.3106   -737.16921    304835.26     15.37282 
  563500    2090.3877    -743.0614    303833.03    15.381725 
  564000    2193.4809   -760.29075    304980.29    15.584595 
  564500    1958.5421   -745.03643    301544.65    15.384798 
  565000    2114.8402   -763.61382    304529.56    15.590111 
  565500    1820.3783   -775.33814    288284.96    15.434632 
  566000    2259.3006   -760.44019    302087.11    15.458334 
  566500    1874.3509   -753.94981    301838.68    15.358419 
  567000    2027.9693   -750.88439    303147.38    15.271414 
  567500    1931.2611   -757.56979    300597.23    15.320898 
  568000    2041.7871    -665.3387     296774.9    14.693909 
  568500    1946.4931   -671.41801    295739.64    14.821515 
  569000    1848.0519    -715.4699    293534.16    15.239323 
  569500    2031.5411   -641.59235    305763.74     14.65971 
  570000    1942.9609    -687.3679    291726.56    15.054137 
  570500    2036.4916   -702.35147    298205.91    15.255101 
  571000     2068.545    -709.4564    298549.47    15.236161 
  571500    1908.3965   -703.14101    299507.11    15.076776 
  572000     2142.563   -704.44285    299769.93    15.091525 
  572500     1952.841    -710.0488    297444.34    15.157226 
  573000    2012.2149   -714.81128    292521.28    15.125588 
  573500    1872.3833   -635.88403    304015.54    14.668168 
  574000    2221.6479   -694.84144    305448.18     14.83366 
  574500    1913.6309   -800.66802    296043.88    15.575018 
  575000    2005.5894   -798.89988    300125.53    15.562865 
  575500    1872.9029    -683.0539    306272.97    14.727741 
  576000    2090.6243   -756.30397    302579.27    15.193328 
  576500    1769.3959   -741.25194    301789.48     15.26114 
  577000    2199.5928   -755.32613    303987.43    15.352288 
  577500    2020.5554   -754.82462    305516.77    15.319253 
  578000      2012.67   -763.43996    300553.63    15.415388 
  578500      1932.88    -735.5166    301286.18    15.150513 
  579000    1931.4769   -639.74111    303479.34    14.592956 
  579500    1954.7243   -737.47002    301973.74     15.21222 
  580000    1949.0587   -797.72135    304573.46     15.61704 
  580500    2111.2411   -796.09569    301779.73    15.553164 
  581000    2001.6141   -742.45764    302544.66    15.049008 
  581500    2031.5214     -704.008    298230.59    14.856996 
  582000     2080.001   -803.78279    284850.01    15.840127 
  582500    1896.2458   -793.40694    310161.54    15.714442 
  583000    1794.7426   -792.97939    293699.14    15.762148 
  583500    2111.9186   -794.46275    306818.76    15.736314 
  584000    2125.3008    -793.9058    292197.12     15.77089 
  584500    1849.8183    -783.5488    304562.63    15.630203 
  585000    2021.4607   -789.05325    301384.83    15.792156 
  585500    1840.6545   -786.86356    308774.99    15.763473 
  586000     1999.481   -787.60496    292134.94    15.798618 
  586500    1880.7014   -782.46866    314370.26    15.737466 
  587000    2011.1786   -775.89735     293111.2    15.533395 
  587500    2164.4984   -658.87084    294435.36    14.715254 
  588000    1895.3058   -713.02267     292909.8    14.980422 
  588500    2041.3643   -680.81862    305665.63    14.797685 
  589000     1897.649   -720.29617    293836.63    15.020881 
  589500     1947.244   -685.96213    303706.97     14.84917 
  590000    2021.1175   -755.63991    298462.73    15.423618 
  590500    2054.1071   -764.48676    300497.28    15.339638 
  591000    1972.5587   -736.33527    293147.77    15.080629 
  591500    1913.1554   -714.23853    295962.55    14.959667 
  592000    2077.8748   -709.31026    300701.95    14.876236 
  592500    1926.3641   -738.96718    300481.03    14.992202 
  593000    2035.3557   -632.38397    307546.39    14.606832 
  593500     1765.616   -704.23313     297140.8    15.116532 
  594000     2108.469   -672.10542    300623.27    14.809412 
  594500    1957.7901   -672.71262    310520.07    14.778475 
  595000    1997.3935   -704.89955     293283.2     14.99547 
  595500    1842.5494    -706.9846    291033.12    14.979655 
  596000    2057.0243   -705.39637    299688.01    14.953038 
  596500    2065.4466   -629.56159    298916.87    14.695451 
  597000    2040.0993   -626.20879    315162.24    14.641556 
  597500    1854.9793   -780.31392    311993.21    15.711038 
  598000    1931.3382   -791.20467    301383.44    15.820659 
  598500     2003.467   -736.83584    302376.97    15.424184 
  599000    1839.2776   -770.71846    294677.26    15.777056 
  599500    1911.4131   -754.91869    300280.91    15.716901 
  600000    1949.0355   -733.37927    298719.41     15.54382 
  600500    1953.9599   -773.55135    264388.19    15.937752 
  601000    1990.5534    -742.6023    300991.45    15.511987 
  601500    2089.6605   -756.91681    305749.88    15.720786 
  602000    1850.3302   -757.69097    300547.36    15.796143 
  602500    1915.8604   -749.35168    305414.03    15.769841 
  603000    1953.4539    -756.2477    305480.34      15.7405 
  603500     2114.403   -707.70922    298920.82    15.285487 
  604000    1913.1229   -687.70895    300711.57    15.050669 
  604500    1924.2966   -648.57287    298347.45    14.694541 
  605000    1826.0425    -638.9235    304113.79    14.731403 
  605500    1881.6426   -727.41377    298582.08    15.401892 
  606000     2131.083   -767.56126    279291.16    15.855678 
  606500     2253.205   -771.27471    303512.25    15.810379 
  607000    1918.3849   -766.87279    306453.01    15.774446 
  607500    1884.0466   -771.89923    289032.77    15.853092 
  608000    2168.8834   -748.97602    306243.29    15.448683 
  608500    1961.7963   -781.19221    303494.64    15.821524 
  609000    2183.1031   -753.29532    303779.03    15.509442 
  609500     2007.341   -761.62628       298417    15.471334 
  610000    2050.1144   -758.18298    300034.81    15.471247 
  610500    1992.0723   -690.64011     307793.1    14.984473 
  611000    2061.1059   -707.50971    300139.47    15.004822 
  611500    1933.6528   -697.78896    299853.61    15.139388 
  612000    2076.0951   -778.41482    300564.59    15.812446 
  612500     2146.966   -748.53871     300689.4    15.403088 
  613000    1797.9128   -754.91353    304750.18    15.294952 
  613500    2078.1884   -767.59682    294954.67    15.423334 
  614000    2190.1554   -770.02715    302984.22    15.586947 
  614500    1933.8826   -756.82343    303720.87    15.476367 
  615000    2278.1527   -750.31085    303372.63    15.446561 
  615500     1961.406   -751.82461       300843    15.534905 
  616000    1925.2571   -736.04599    303046.42    15.444185 
  616500    1965.4263   -768.77209     285329.6    15.821472 
  617000    1763.5325   -772.04337    290053.52    15.777518 
  617500    2129.9347   -744.67795    308800.93    15.433794 
  618000    1893.6281   -630.20785    308608.42    14.641089 
  618500    2038.3254   -701.33691    291861.15    15.155592 
  619000    2097.1878   -699.61886    307761.27    14.975062 
[...]
14848500    2111.9706   -745.57654    307906.63     15.45458 
14849000    1761.1481   -729.89564    296314.97    15.321064 
14849500    1979.3334   -726.96462    306036.62    15.066853 
14850000    1971.2628   -677.56299    308828.08     14.81086 
14850500    2306.2725    -693.5342    317160.91    14.860389 
14851000    2005.4613   -719.13992     296421.4    15.036558 
14851500    1915.0232   -676.25234    302235.12    14.784948 
14852000    1976.0952   -682.49513    290693.41    14.809425 
14852500    2030.1016   -647.52949    312025.01     14.66381 
14853000    2013.7111   -617.96063    267882.47    14.576917 
14853500     1771.873    -601.4014    292307.17    14.579291 
14854000    2073.6664   -600.15973    302403.89    14.518438 
14854500     2119.373   -605.64085       318843    14.474113 
14855000    1985.1136   -607.90524    313693.94    14.493805 
14855500    1976.5184   -609.06854    306361.51    14.487365 
14856000    1942.4392   -609.42876    297084.63    14.525844 
14856500    2020.9545    -648.7411    325097.21    14.622524 
14857000    2041.8426   -726.83957    305142.92    15.123505 
14857500    2069.1748    -710.9017    305539.52    15.024434 
14858000    2000.0476   -743.87776    311505.01     15.31118 
14858500    1966.0352   -767.08855    300822.83    15.681572 
14859000    2018.6003   -764.43273    300967.98     15.63262 
14859500    1934.6819   -756.42452    300508.59    15.645102 
14860000    2079.9254    -755.7469     301923.1    15.736417 
14860500    1862.9403    -733.8078     296631.5    15.491183 
14861000    1803.8212   -731.11554    302466.87    15.339896 
14861500    1888.2526    -761.4223    300198.05    15.590757 
14862000    1888.2401   -698.20609    296983.89    15.200353 
14862500    1939.8976   -757.76345    297281.62    15.754046 
14863000    1973.8997   -724.93123     303419.2    15.358042 
14863500    1949.5501   -763.17133    301592.45    15.668363 
14864000    2125.9272   -750.29615    301961.98    15.460107 
14864500    1949.3852   -755.35778    296816.19    15.481192 
14865000    2129.8444   -765.90796    293356.83    15.649915 
14865500    1962.8064   -764.23185    289236.71    15.496433 
14866000    1768.2451     -741.035    299284.68    15.266559 
14866500    2014.2579   -744.45549    307564.81    15.276924 
14867000    2143.8984   -755.58309    302302.29    15.489291 
14867500    1821.1761   -733.26441    300871.74    15.345648 
14868000    1991.2454   -765.59969    299859.69    15.729523 
14868500    1982.0873   -752.63899    300425.15    15.509347 
14869000    1903.7846   -763.64806    298665.52    15.769624 
14869500    2002.6819   -765.93374    305152.43    15.853388 
14870000    1958.4696   -764.37936    290875.69    15.889261 
14870500    1952.9898   -775.93656    303410.82    15.867232 
14871000    2077.7259   -778.69648    309502.45    15.815043 
14871500    2132.5362   -747.33335    305817.01    15.420188 
14872000    2084.9257   -763.78935    295338.32    15.454988 
14872500     1963.395   -758.35503    299621.12    15.478895 
14873000    1891.0175   -616.66445    298617.61    14.500315 
14873500    2054.9032   -699.09208    298378.24    15.019498 
14874000    1998.1764   -716.78271    297699.77    15.063212 
14874500    1906.3496   -695.59383    304613.79    14.984205 
14875000    1908.1881   -707.69231    298649.81    15.054267 
14875500    1918.3121     -724.675    292881.14    15.133974 
14876000    1909.8559   -722.22203     295567.9    15.131096 
14876500    1917.6832   -717.38444    306766.45    15.109987 
14877000    2018.0177   -796.07029    294452.77    15.818645 
14877500    1957.7012     -744.153    304988.91    15.384259 
14878000    2095.4814   -750.93154    297714.38    15.512185 
14878500     1947.163   -754.73064    296633.61    15.498818 
14879000    2048.2148   -716.97494    300526.33    15.258632 
14879500     2142.617   -754.68686    301638.71    15.400734 
14880000    2018.2191   -787.45821    285227.53    15.803107 
14880500    1942.7103   -782.45162    316263.95     15.81913 
14881000    2020.4677   -779.10339    297529.08    15.886446 
14881500    2021.6807   -760.35542    304317.13    15.783616 
14882000    1935.9812   -760.90161    299351.27    15.782829 
14882500    1970.5259   -764.24488    293949.19    15.870763 
14883000    2069.1778   -737.72957    302146.12    15.457962 
14883500    2027.2402   -756.03636    303734.42    15.721988 
14884000    2032.9438    -742.5501    300104.89    15.778882 
14884500    2162.3416   -748.88983    302254.49    15.689456 
14885000    2009.9903   -741.05523    305210.94    15.616066 
14885500    2040.0784   -635.98732    290727.83    14.986492 
14886000    2042.2614   -674.63765    302200.57    15.370995 
14886500     1949.033   -671.43143    301246.18    15.361134 
14887000    2022.1541   -687.95281    297131.42    15.472237 
14887500    2022.9339   -698.99343    300312.52    15.508248 
14888000    2199.0924   -673.98125    301599.87    15.321803 
14888500    1993.7212   -736.39435    293991.04    15.860651 
14889000    2190.0165    -664.0673    298341.98    15.166133 
14889500    1823.5702   -635.27939    298172.01    15.006412 
14890000    1983.6266   -648.64157    297354.55    15.059225 
14890500    2071.3431   -663.39469    301206.25    15.089781 
14891000    2161.6813   -649.54043    312836.01    14.771317 
14891500    2005.9214   -659.13699    292900.08     14.93628 
14892000    2065.7614    -605.0102    295458.91    14.532624 
14892500    1973.7805   -597.03486    307659.32    14.550607 
14893000    2023.2008   -588.65394    313659.38    14.606103 
14893500    1961.0772   -693.09919    298660.07    15.377178 
14894000    1914.1643   -691.23187    303217.61    15.460975 
14894500    1921.2861   -702.29621    291494.96    15.542996 
14895000    1990.7994   -701.14787    288899.59     15.37308 
14895500     2204.234   -684.59976    303827.99    15.425121 
14896000    1894.3588    -676.7509     301269.7    15.251716 
14896500    2071.5667   -732.91342    304620.44    15.638971 
14897000    2205.8524   -769.04017     301751.4    15.890351 
14897500     2024.243   -763.30838     290112.9    15.910866 
14898000      1940.62   -761.75732       306118    15.767259 
14898500    2017.4426   -751.49694    300659.65    15.702815 
14899000    1900.9776   -706.11395    295203.12    15.541963 
14899500    1925.2822   -628.76653    306326.84    14.991788 
14900000    1828.9428   -630.54765    301621.27    14.906437 
14900500    1964.2738   -656.48134    296577.98    15.051968 
14901000    2078.1919    -621.7498    303792.92     14.86107 
14901500    2069.6983   -713.47959     299875.9    15.678704 
14902000    1961.7678   -740.82585    295182.38    15.896859 
14902500    1941.7449   -673.78449    300133.47    15.427197 
14903000     2077.696   -682.35811    300372.21    15.375189 
14903500    2198.0043   -733.77142    289871.86    15.878114 
14904000    2022.5591   -623.23915    294336.38     15.01702 
14904500    1953.7848   -678.45876    304198.12    15.315218 
14905000    2167.1523   -682.97295    303747.88    15.374375 
14905500    1967.8311   -654.21046     299065.7    15.103868 
14906000    1997.3956   -573.60263    291423.52    14.622525 
14906500    2056.6944   -689.17294    301586.41    15.324138 
14907000    2099.2379   -665.56711    304792.02    15.328308 
14907500    2053.4908    -677.1022    306303.27    15.398232 
14908000    2041.9143   -701.86878    292498.01    15.582097 
14908500    2056.3902   -686.44734    302930.59    15.401889 
14909000    1884.9746    -632.2159    297234.05    15.051655 
14909500    2075.9189   -625.83178    300633.67    15.059183 
14910000    1964.8766   -629.41946     300758.6    14.997527 
14910500     1764.512    -663.2157    294916.03    15.235087 
14911000    2060.9566   -681.80507    299469.38    15.400938 
14911500    1921.9486    -683.4357    295547.99      15.4342 
14912000    2053.5581   -703.74345    294111.29    15.600607 
14912500    1988.2235   -673.94913    304077.89    15.375845 
14913000     1896.646   -723.88693    298321.91    15.747477 
14913500    1953.2952   -618.51803    312972.59    14.866866 
14914000    1835.8216   -628.48909    304213.55    15.004569 
14914500    1985.8231   -656.16781    298273.12    15.148766 
14915000    1970.0285   -622.96448    302836.94    14.900404 
14915500    2148.5663   -652.56362     300230.6    15.108046 
14916000    2209.3603   -656.67496    304906.79    15.217167 
14916500    1960.9814   -749.39809    289278.81    16.075227 
14917000    1912.7003   -679.68536    298127.52    15.385141 
14917500    1824.4049   -663.61124    298240.24    15.312602 
14918000    1792.8422   -670.38125    298046.94    15.342748 
14918500     1821.573   -616.35629    301057.72    14.952209 
14919000    1901.9355   -740.89484    291666.21    15.913553 
14919500    1904.4727   -735.79073    295402.39    15.872398 
14920000     1953.579   -759.51113     299945.3    15.954478 
14920500    2153.2525    -698.0203    298455.13    15.457139 
14921000    2037.5747   -607.52688    299327.14    14.953465 
14921500    1990.6128   -609.58586    306003.07    14.960162 
14922000    1987.1245   -587.60876    318108.55    14.794688 
14922500    2068.1505   -661.05349    295252.76    15.128883 
14923000    1981.0211   -641.89983    295677.14     14.91993 
14923500    1955.2813   -638.10216    295035.33    15.066793 
14924000    1999.7621   -668.23966    299290.06    15.287253 
14924500    2013.4497   -670.77748    302674.32    15.350589 
14925000    1937.7928   -701.92245    300103.23    15.500936 
14925500    1842.7421    -672.8497    301888.09    15.355191 
14926000    1976.0715   -699.11568    302239.29    15.521501 
14926500    1818.4071    -681.2159    299017.06    15.395154 
14927000    2039.3763   -674.95862    300533.51    15.301491 
14927500     2099.835   -762.85464     294186.2    15.948639 
14928000      2103.32   -728.35642    304358.56    15.611694 
14928500    1942.3152   -684.97461    299057.89    15.454567 
14929000    1903.9943   -706.51288    296407.59    15.507211 
14929500    2130.1557   -672.05945    302451.59    15.272306 
14930000    2015.2676   -688.89881    298995.63    15.421845 
14930500     1836.788   -711.00979    296101.37    15.533575 
14931000    2114.9561   -669.02244    304898.13    15.225829 
14931500    1874.9526   -709.06056    298609.87    15.479823 
14932000    2019.9812   -699.77002    292849.12    15.398994 
14932500    1986.1143   -681.05914    296071.11    15.377504 
14933000    2061.5179   -674.74728    308701.92    15.167982 
14933500    1925.8584   -616.56967     309132.1    14.867241 
14934000    2030.5376   -627.32918    309014.78    14.877154 
14934500    1788.3016   -644.84488    297886.34    15.078626 
14935000    2162.2757   -677.53973    299157.69    15.336512 
14935500    1960.1578   -686.40999    302972.01    15.387153 
14936000    1706.9168   -652.86829    294511.24    15.150811 
14936500    1930.1094   -676.52321    293772.99    15.193174 
14937000    1886.5244   -631.72261    302673.33    15.016307 
14937500    1933.2074   -707.51018     290626.6    15.657244 
14938000    2140.7682   -611.29868    315420.38     14.81779 
14938500     2017.478   -685.88825       294291    15.405006 
14939000    2086.9497   -671.00511    302206.52    15.265284 
14939500    2084.3627   -710.84274    299910.72    15.530639 
14940000    2216.9463   -609.77655    308832.35    14.886478 
14940500    2179.6379   -743.16801    300669.03    15.717141 
14941000    2102.4903   -754.02936     298483.1    15.864256 
14941500    1974.3478   -722.18905    302033.87    15.778829 
14942000    2150.5303   -676.90821     301741.2    15.346781 
14942500     1960.319   -630.99514     303178.8    15.030441 
14943000    1964.6225   -645.35684    298633.14    15.066129 
14943500    1866.1102   -682.21564    299724.18    15.344075 
14944000    2121.1832   -688.68722    298593.31     15.43219 
14944500    2032.4079   -708.37004    301802.83    15.495365 
14945000    2161.2196   -631.50147    304100.78    14.921843 
14945500    2150.7362   -643.62465    315890.33    14.789285 
14946000     2022.655   -761.76553    302731.07    15.467791 
14946500    1812.3025   -772.04299    289005.64    15.623417 
14947000    2025.9875     -770.944    297213.56    15.592328 
14947500    2085.6142   -758.87946    297730.94     15.47276 
14948000      1885.91   -762.59495    295400.09    15.540169 
14948500    1899.1734   -763.90535    294993.64    15.424076 
14949000    1761.4902   -677.78398    293512.48    14.832958 
14949500    2012.4336   -741.23515    298301.92    15.244099 
14950000    2002.2126   -730.07434    301371.16    15.099304 
14950500     2141.891    -718.3856    301122.88    15.014808 
14951000    2029.3501   -730.76377    299741.37    15.112422 
14951500    2055.9246   -710.91378    302256.23     15.03403 
14952000    1944.5709   -681.85061    294225.01    14.886997 
14952500    1952.8836   -611.11293    280472.86    14.570249 
14953000    2048.1545   -661.14429    297426.65    15.016695 
14953500    2118.3843   -751.23413    307495.85    15.766742 
14954000    1978.6468   -692.30931    303246.45    15.246072 
14954500     2200.451   -707.98646    294111.72    15.298484 
14955000    1906.5662   -696.57748    298773.59    15.486149 
14955500    1911.7085   -683.67858    295453.15    15.459753 
14956000     1988.987   -664.20814    297978.55      15.1183 
14956500    1864.0081   -608.26038    289168.19    14.534135 
14957000    1946.6547   -592.12889    339212.55    14.531851 
14957500    1997.2308   -591.99047    301739.28     14.59304 
14958000    2164.9264   -606.16394    292880.86    14.557446 
14958500    1860.8796   -725.31136    298833.22    15.356881 
14959000    2142.7419   -788.99363    295476.17    15.863646 
14959500    2055.4335   -726.34214    293953.98     15.25324 
14960000    1903.8649   -721.98763    292249.36    15.320483 
14960500    1924.3328   -688.85999    300957.98    15.334342 
14961000    2027.5552   -667.13817     307141.4    15.223622 
14961500    2327.2995   -767.27112    293754.79    15.894905 
14962000    1939.9348   -634.90057    298380.99    14.940414 
14962500    2006.4172   -646.06928    300800.87    15.050239 
14963000    2007.7001   -627.05524    294039.37    15.061011 
14963500    1887.6279   -667.75877    297746.56    15.287437 
14964000     2028.878   -754.40796    298883.83    15.851122 
14964500     1886.808   -761.63246    298003.12    15.790252 
14965000    1959.9045   -760.25265    301331.48    15.805954 
14965500    1947.8022   -760.01077    301638.04    15.779472 
14966000    2138.1418    -745.6615    303131.93    15.475742 
14966500    2184.5789   -745.50444    301378.94    15.485719 
14967000    1849.7712   -757.96028    301855.51    15.556571 
14967500    1956.8873   -771.35742    297800.82    15.671144 
14968000    1942.8089   -651.42777    299574.83    14.852332 
14968500    1901.9803   -671.85534    298500.26    14.959619 
14969000    2164.0053   -593.73508    310063.68    14.579212 
14969500    1948.5043   -754.72598     300704.9    15.567263 
14970000    2188.6802   -730.79483     304331.5    15.289544 
14970500    2094.3769   -735.15132    302533.49    15.370549 
14971000    1838.6765   -767.24541     296160.1    15.793383 
14971500     1900.642   -711.08835    298664.57    15.487251 
14972000    1865.8223   -734.12471    301134.43    15.660415 
14972500     1944.799    -754.5191     300992.8    15.889047 
14973000    1754.2469   -751.49351     295065.9    16.013123 
14973500    1960.6416   -691.02014    301539.95      15.5765 
14974000    2042.2829   -582.22111    306163.16      14.7614 
14974500    1830.8643   -567.89068     282971.2    14.602474 
14975000    1869.7578   -565.46419    300474.06    14.551514 
14975500    1959.0234   -561.00203    297189.86    14.587067 
14976000    2003.3508   -569.56024    301434.71    14.548036 
14976500    2000.8777   -563.02371    302797.03    14.549135 
14977000     2000.133   -663.81496    306610.95    15.203771 
14977500    2089.0798   -741.95707    303455.71    15.662081 
14978000    2070.7214   -751.13164    302723.54    15.749091 
14978500    2032.2267   -750.44447    299252.11    15.915525 
14979000    1814.9445   -734.82753    298494.68    15.841792 
14979500    1990.0205   -750.92977    303454.54    15.604127 
14980000    1972.2464   -729.03825    300986.48    15.419948 
14980500    1901.1391   -635.55894    297521.25     14.71395 
14981000    2122.6058   -619.19345    309164.26    14.645801 
14981500    2049.8958   -679.96614    292925.55    14.965257 
14982000    2069.7415   -673.79802    301443.94    14.893031 
14982500    2080.3676   -679.93047    301818.36    14.912011 
14983000    2093.2833   -617.64273     304777.6    14.603596 
14983500    1829.9659   -604.47413     302113.6    14.626775 
14984000    1976.0194    -580.8544    295628.46    14.552763 
14984500    1902.2518    -621.4194    303654.47    14.707911 
14985000      1919.79   -648.54576    300653.84    14.993904 
14985500    2067.0641   -621.11223    299819.21    14.700377 
14986000    1992.8844    -645.8936    300595.21      14.7821 
14986500      1957.54   -596.10648    300790.13    14.537642 
14987000    2032.6452   -614.71327    286694.56    14.558346 
14987500    2080.1288   -637.91212    300833.36    14.673835 
14988000    1876.5968   -632.16183     303262.8    14.615971 
14988500    1991.5332   -674.39151    313998.38    14.799073 
14989000    1976.2648    -645.6403    308707.57     14.66326 
14989500    2028.0926   -624.61526    305591.73    14.682686 
14990000    2020.2426   -635.15521    295313.21    14.754191 
14990500    2012.1251    -628.4509     313663.9    14.642416 
14991000    1863.2732   -621.20387    305394.81     14.66178 
14991500    1868.3986   -612.43757    301344.62    14.659315 
14992000    2024.0702   -599.93435    297282.37    14.568307 
14992500    1983.2904   -628.96309    289699.35    14.697487 
14993000    2103.6786   -654.50079    297844.41    14.829511 
14993500    1883.5598   -611.68202    309983.69    14.636352 
14994000    1840.1823   -675.52389    299314.88     14.94502 
14994500    2146.1675   -646.69652    302096.66    14.677329 
14995000    1956.8248   -600.63685    301443.94    14.535978 
14995500    1874.4712   -613.97479    305749.98    14.631742 
14996000    2037.4939   -661.80452    298409.22    14.861886 
14996500    1977.1243   -623.75369    295131.97    14.749485 
14997000    1867.0622   -619.01785    306024.35    14.614826 
14997500     1826.686   -684.65953    285242.11    14.959172 
14998000    1994.4487   -623.68648    292315.46    14.653965 
14998500    1830.1524   -601.62067    301838.05    14.561143 
14999000    2025.7633   -633.06598    297885.12       14.736 
14999500    2259.4724   -655.80182     305555.5     14.89402 
15000000    2157.9787   -616.91407    312160.05    14.646955 
Loop time of 67390.8 on 6 procs for 15000000 steps with 256 atoms

Performance: 38.462 ns/day, 0.624 hours/ns, 222.582 timesteps/s
99.0% CPU use with 6 MPI tasks x no OpenMP threads

MPI task timing breakdown:
Section |  min time  |  avg time  |  max time  |%varavg| %total
---------------------------------------------------------------
Pair    | 3764.4     | 3934.2     | 4063.1     | 147.6 |  5.84
Neigh   | 110.37     | 111.96     | 115.34     |  15.5 |  0.17
Comm    | 896.37     | 1031.8     | 1208.4     | 300.7 |  1.53
Output  | 278.2      | 278.22     | 278.31     |   0.2 |  0.41
Modify  | 61976      | 61982      | 61991      |   2.2 | 91.97
Other   |            | 52.55      |            |       |  0.08

Nlocal:    42.6667 ave 46 max 39 min
Histogram: 1 0 1 0 0 2 0 1 0 1
Nghost:    1246.5 ave 1263 max 1232 min
Histogram: 1 1 0 2 0 0 0 0 0 2
Neighs:    4051.33 ave 4333 max 3558 min
Histogram: 1 0 0 0 1 0 1 1 0 2

Total # of neighbors = 24308
Ave neighs/atom = 94.9531
Neighbor list builds = 753232
Dangerous builds = 2

write_data	data.final.${p_id}
write_data	data.final.2
Total wall time: 18:43:16
