LAMMPS (8 Feb 2019)
Processor partition = 5
echo both

include         in.partitions
variable p_id world   0 1 2 3 4 5
include		in.temp
variable	temperature equal 2000.
variable	tempDamp equal 0.1 # approx 0.1 ps
include		in.pressure
variable	pressure equal 300000.
variable	pressureDamp equal 1.0
include 	in.seed
variable	seed world 74581 93734 128321 21934 495716 871038
units		metal
read_restart    Restart.lmp.${p_id}
read_restart    Restart.lmp.5
  restoring atom style atomic from restart
  orthogonal box = (0.298002 0.298002 0.298002) to (15.886 15.886 15.886)
  2 by 1 by 3 MPI processor grid
  pair style eam/alloy stores no restart info
  256 atoms
include 	in.setup
variable	out_freq equal 500
variable	out_freq2 equal 500

neigh_modify    delay 10 every 1
include		in.al
### Argon Potential Parameters ###
pair_style 	eam/alloy
pair_coeff 	* * Al99.eam.alloy Al

timestep	0.002 # According to Frenkel and Smit is 0.001

thermo          ${out_freq}
thermo          500
thermo_style 	custom step temp pe press lx


restart 	${out_freq} Restart.lmp.${p_id} Restart2.lmp.${p_id}
restart 	500 Restart.lmp.${p_id} Restart2.lmp.${p_id}
restart 	500 Restart.lmp.5 Restart2.lmp.${p_id}
restart 	500 Restart.lmp.5 Restart2.lmp.5



timer 		timeout 23:50:00 every 1000
New timer settings: style=normal  mode=nosync  timeout=23:50:00

# NPT

include		in.dump
dump            myDump all atom ${out_freq2} dump.al.${p_id}
dump            myDump all atom 500 dump.al.${p_id}
dump            myDump all atom 500 dump.al.5
dump            myDcdDump all dcd ${out_freq2} out.${p_id}.dcd
dump            myDcdDump all dcd 500 out.${p_id}.dcd
dump            myDcdDump all dcd 500 out.5.dcd
dump_modify	myDump append yes
dump_modify     myDcdDump append yes



fix             1 all plumed plumedfile plumed.dat outfile plumed.out
fix             2 all nph iso ${pressure} ${pressure} ${pressureDamp}
fix             2 all nph iso 300000 ${pressure} ${pressureDamp}
fix             2 all nph iso 300000 300000 ${pressureDamp}
fix             2 all nph iso 300000 300000 1
Resetting global fix info from restart file:
  fix style: nph, fix ID: 2
fix             3 all temp/csvr ${temperature} ${temperature} ${tempDamp} ${seed}
fix             3 all temp/csvr 2000 ${temperature} ${tempDamp} ${seed}
fix             3 all temp/csvr 2000 2000 ${tempDamp} ${seed}
fix             3 all temp/csvr 2000 2000 0.1 ${seed}
fix             3 all temp/csvr 2000 2000 0.1 871038
fix             4 all momentum 10000 linear 1 1 1 angular

run             30000000 upto # 60 ns
All restart file global fix info was re-assigned
Neighbor list info ...
  update every 1 steps, delay 10 steps, check yes
  max neighbors/atom: 2000, page size: 100000
  master list distance cutoff = 8.28721
  ghost atom cutoff = 8.28721
  binsize = 4.1436, bins = 4 4 4
  1 neighbor lists, perpetual/occasional/extra = 1 0 0
  (1) pair eam/alloy, perpetual
      attributes: half, newton on
      pair build: half/bin/atomonly/newton
      stencil: half/bin/3d/newton
      bin: standard
Per MPI rank memory allocation (min/avg/max) = 4 | 4.065 | 4.376 Mbytes
Step Temp PotEng Press Lx 
14999500    1880.0691   -724.32484    298428.01    15.587996 
15000000    1992.2744   -615.72863    306770.57    14.880974 
15000500    1860.1427   -739.09702    300742.59    15.661657 
15001000    1909.3633   -754.90848    306010.99    15.692234 
15001500    1909.5155   -749.67302    300623.76    15.473568 
15002000    2020.8632   -769.98573    298752.92    15.654495 
15002500    1992.9487   -764.58461    301981.91    15.747963 
15003000    2193.3032   -738.45312    307372.98    15.629973 
15003500    1918.8407   -616.43822    306325.38    14.963586 
15004000    1968.5385   -636.26835    301942.46    15.008393 
15004500    1956.5758    -627.5769    292895.25    15.003449 
15005000    1931.5723   -670.12758    304989.23    15.335408 
15005500    1890.8504   -734.98898    293776.09    15.855678 
15006000    1995.5932   -700.24624    296838.14    15.505895 
15006500     2063.293   -616.01559    296247.58    14.946816 
15007000    1961.3541   -734.32632    301115.33    15.818841 
15007500    1956.3933   -727.93453    304335.38    15.685304 
15008000    2001.2252   -719.65678    302579.48    15.772897 
15008500    1992.8072   -713.70315    296156.98    15.753588 
15009000    2055.4481   -662.87064    304142.16    15.272378 
15009500    1995.5565    -680.2574    299970.22    15.569975 
15010000    2029.7146   -638.28496    303300.23    15.103505 
15010500    2077.3761   -562.78416    294023.63    14.650059 
15011000    1796.2591   -576.41091    291398.63    14.630151 
15011500    2158.1205   -559.14989    306042.22    14.558792 
15012000    1966.4543   -552.44633    298803.66    14.553545 
15012500     1971.882   -557.18924    311126.15    14.551734 
15013000    1952.6641   -577.07596    287480.36    14.621119 
15013500    2080.0867   -581.45589    301208.51    14.565639 
15014000    1932.8229   -643.74731    299864.05    14.912338 
15014500     1900.694   -647.14684    293050.15    14.873989 
15015000     2117.659   -677.66375    301216.09    14.937661 
15015500    2153.0155   -597.78649     317399.3    14.536982 
15016000    2012.7501   -657.31114    298918.36    14.846389 
15016500    2227.1682   -616.80517    301392.63    14.674372 
15017000    2193.7662    -666.7349    305853.52    14.865365 
15017500    1932.9437   -744.43858    298009.86    15.416626 
15018000    2164.2381   -737.75746    301275.42    15.373676 
15018500    2035.0425   -696.10992    304295.31    14.960231 
15019000    2198.7049   -673.25122    302837.53    14.883535 
15019500    2152.0009   -665.77008    309943.76    14.869806 
15020000    1910.1335    -711.2324     304877.5    15.222521 
15020500    1940.7513   -742.16348    299152.56    15.396981 
15021000    1833.3608   -770.84162    292394.69    15.664197 
15021500    2123.4948   -759.31129    301285.95    15.530624 
15022000    1915.7938   -651.44222    302622.59    14.850242 
15022500    1934.7119   -665.54053     296891.1    14.957476 
15023000    2082.8569   -633.17442    305418.29    14.886412 
15023500    1963.6101   -551.69667    294314.59    14.630225 
15024000    1998.1461   -578.89283    296714.81    14.724835 
15024500    2081.3808    -670.6709    308160.96    15.142447 
15025000    2113.9278   -776.74158    294507.27    15.838841 
15025500    1953.4614   -726.54676    303251.78    15.302311 
15026000    1909.3513   -769.33114    296897.88     15.84512 
15026500    1882.6576   -703.27643    302079.64     15.21544 
15027000    2049.7507   -718.99609    297524.54    15.165942 
15027500    1953.7649   -651.02886    300740.36    14.794188 
15028000    1929.6816   -641.33611    295197.18    14.696492 
15028500    1995.9241   -638.74467    305170.55    14.657899 
15029000     1874.636   -668.86704    303129.37    14.870773 
15029500    1846.8027   -672.96287     300262.9    14.882601 
15030000    1811.1766   -615.91881    295525.72    14.625314 
15030500    1997.9586   -658.59325    302894.32    14.772219 
15031000    1916.7687   -684.54802    284929.41    14.860747 
15031500    1934.7727   -687.79848    296269.26    14.848507 
15032000    1887.6979    -678.0047    308463.29    14.783384 
15032500    1990.5578   -681.21862    295808.76    14.872136 
15033000    2000.6513   -676.74514    308454.23    14.795762 
15033500    2016.3664   -678.94752    296785.07    14.852446 
15034000    1903.2523    -711.5174    293073.26    15.005851 
15034500     2046.229    -683.0956    299627.13    14.894051 
15035000    1989.5857   -681.65103    300158.46    14.836564 
15035500     2159.434   -697.78049    295392.54    14.911332 
15036000    2013.9217   -680.47266    301523.49    14.817128 
15036500    2116.6613   -681.22464    301736.49    14.857066 
15037000    2169.9767   -687.03832    291683.93    14.905645 
15037500    1946.0492   -685.43272    309032.62    14.878441 
15038000     1978.222   -668.84759    299243.43     14.83758 
15038500    2074.3354   -674.37898    300356.02    14.861756 
15039000    2122.5053   -612.94746    310745.24    14.578808 
15039500    1909.7712   -621.22389    297603.94    14.639606 
15040000    2028.3568   -663.76647       310403    14.835043 
15040500     1942.604   -613.56411    298377.06    14.646838 
15041000    2097.5253   -659.11271    302904.51    14.810632 
15041500    2100.3369   -640.97122     292438.3    14.716327 
15042000    2049.9482    -604.6249    313087.55    14.545991 
15042500    1916.1282   -669.70372     288090.4    14.848593 
15043000    1948.8498   -649.24413    295761.57    14.770365 
15043500    1872.2206   -619.17495    297692.52    14.601197 
15044000    1886.1991   -674.00347    292621.08    14.927871 
15044500    2013.0761   -607.43722    305275.65    14.510069 
15045000    2148.4667   -635.88788    308512.12    14.660782 
15045500    1999.1236   -665.11042    296018.09    14.820142 
15046000    2066.3242   -656.01321    300108.19    14.738406 
15046500    2048.0954   -624.34332       301822    14.657344 
15047000    1859.7477   -608.11907    289964.23    14.598541 
15047500    2015.9931   -678.67987    300217.08    14.892974 
15048000    1973.3225    -631.9663     303580.3    14.694317 
15048500    2033.0416   -668.99937    282982.05    14.909975 
15049000    2008.4875   -666.57188    303867.03     14.81045 
15049500    1925.5786   -681.98942    290855.27    14.935764 
15050000    1891.1403   -701.88779    301895.02    15.059812 
15050500    1940.7176   -681.14695    279392.17    14.938811 
15051000    1694.9505   -623.63568    290064.25    14.596336 
15051500    2154.2174   -664.79982    298287.48    14.868899 
15052000    1906.7652   -637.80118    309251.01    14.671798 
15052500    2226.0795   -647.28573    309593.13    14.636199 
15053000    2025.9656   -698.89161    294553.21    15.043539 
15053500    1899.1617    -651.2893    294430.07    14.752776 
15054000    2149.2492   -674.30076    282986.58    14.929977 
15054500    2044.0064   -634.19104    301972.85    14.691194 
15055000    2017.2271   -622.23001    306051.43    14.649302 
15055500    1978.2432   -603.40803    298050.82    14.616674 
15056000    1962.4066   -690.02223    298083.57    15.054157 
15056500    2099.0225   -629.30207    303064.86    14.735613 
15057000    2115.3943   -627.11223    295007.82    14.614641 
15057500    2207.9131   -671.51757    309771.83    14.837108 
15058000    1962.5693    -695.6135    299905.07    15.044381 
15058500    1850.7864    -650.0641    289790.73    14.778826 
15059000    2255.1555   -576.59415    308790.94    14.498883 
15059500      1997.17   -589.86168    301526.02    14.501841 
15060000     1999.648    -631.8163    303570.68    14.741181 
15060500    1975.8286   -628.87617    299972.08    14.846659 
15061000    2158.0087   -649.38414    302336.74    14.824892 
15061500    2093.2614    -701.4677    297887.57    15.084724 
15062000    2137.6182   -610.70423    303609.69    14.572431 
15062500    2036.5886   -588.28414     297317.2    14.523175 
15063000    1985.0886   -624.57356    306670.87    14.665377 
15063500    2054.7734   -638.71907    280200.36    14.694461 
15064000    2067.8275   -691.27122     295068.8    15.046498 
15064500    1970.0738   -580.09545    295070.55    14.523235 
15065000    1840.1369   -610.95521    301006.33    14.665187 
15065500    1975.3621    -624.5478    296769.03    14.772309 
15066000    1970.6681   -646.62024    297533.16    14.846171 
15066500    1753.8299   -605.68104    300583.33    14.573767 
15067000    2002.1842   -613.66473    301138.89    14.637517 
15067500    1793.0658   -681.86797    300131.06    14.997776 
15068000    2026.9625   -762.06508     296733.6    15.608827 
15068500    2094.1239   -748.26152    302145.38    15.443459 
15069000    2240.2746   -752.72832     297296.6    15.438837 
15069500    1886.5789   -750.97993    302976.99    15.436744 
15070000    1983.6527   -737.91587    300248.29    15.387746 
15070500    1970.2371   -744.73108    298684.22    15.464934 
15071000    1849.5993   -738.17271    299015.27    15.659131 
15071500    2081.8527   -756.86066    300060.06     15.78023 
15072000    2088.9788   -758.62248    295392.97    15.881817 
15072500    2015.2835   -740.40168    296021.75    15.845774 
15073000    2023.5355   -631.47941    297587.92    15.011646 
15073500    1921.8702   -665.96135    298432.54    15.164939 
15074000    1853.4778   -630.34242    297484.62    14.967311 
15074500    2028.7586   -636.76794    301414.77    15.015757 
15075000    1966.5241   -641.25445    302319.29    15.011296 
15075500     1910.686   -638.69734    294800.95    14.956416 
15076000    1904.9103    -619.8811     304196.6    14.917607 
15076500    2015.2935    -673.5722    298111.76    15.331981 
15077000    1839.3804   -742.73589    303593.19    15.815822 
15077500    1934.6577   -738.18312    294036.22    15.879589 
15078000    1967.1148   -744.50662    294903.33    15.878019 
15078500    2040.7485   -748.81978    302512.91     15.80686 
15079000    1953.9193   -748.04836    300268.35    15.839591 
15079500    1934.2285    -750.1565     300122.4    15.881545 
15080000    1912.0371   -705.36217    299048.57    15.463727 
15080500    2189.8928   -641.94751    305994.34    15.130124 
15081000     2101.772   -721.92932    296891.29     15.83313 
15081500    2195.8671   -714.89884    305012.02    15.750657 
15082000     1972.724   -713.26381    300722.74    15.784639 
15082500     2173.662   -701.09408    303386.35    15.619782 
15083000    1996.1051   -670.61878    299314.73    15.474907 
15083500    2104.5346    -701.8504    302751.44    15.756981 
15084000     1952.045   -743.94231    300516.44    15.970401 
15084500     1935.915   -665.07132    301943.81    15.280588 
15085000    2050.1357   -696.63741    300499.74     15.46081 
15085500    1986.9851   -686.81398    295181.99    15.359844 
15086000    1881.0782   -659.64092    297258.43    15.199107 
15086500    1907.0058   -696.84182     296589.5    15.538826 
15087000    1883.9253   -670.34872    303493.87    15.476787 
15087500     2053.813   -671.85002    297899.99    15.391192 
15088000    2128.6335      -690.56     302945.8    15.559105 
15088500    2058.7989    -707.6641    303485.97    15.719148 
15089000     1860.732   -645.93954    299852.49     15.28302 
15089500    2014.6294      -691.59    301080.61    15.464815 
15090000    1893.2966   -617.51334    294811.42    14.994597 
15090500    1999.6474   -648.75429     302150.5    15.176198 
15091000    1970.6917   -671.60421    298369.46    15.265377 
15091500     1922.314   -578.19916    295350.19    14.570186 
15092000     2109.889   -641.10386    303781.68    14.964639 
15092500    2060.0787   -726.54548    302259.02    15.717455 
15093000    1965.5554   -687.57962    300773.51    15.606011 
15093500    1976.3055   -726.14624     296901.6    15.884382 
15094000    2104.6628   -670.10956    302801.66    15.438167 
15094500    1976.3591   -647.52574    299793.28    15.271147 
15095000     1991.517   -624.52701    297335.59    15.155992 
15095500    2100.3052   -717.84844    300170.31    15.746019 
15096000    1826.3574   -697.32415    300071.22    15.678174 
15096500    1953.8135   -722.78194    300339.04      15.7926 
15097000    1889.8239   -674.61616    297263.48    15.480098 
15097500    1917.8012   -686.34312    298356.59    15.587699 
15098000    1889.8668   -655.70109    302283.79    15.282661 
15098500    2048.9884    -736.2613    296775.39    16.008158 
15099000    1947.3266   -750.35645    301968.62    16.044813 
15099500    1967.9818   -740.68909    298272.55    15.976893 
15100000    2119.7395   -648.70154    301165.54    15.133527 
15100500    1843.4084   -610.08269    297616.91    15.010819 
15101000    1961.1181   -610.85491    299263.71      15.0105 
15101500    1986.0079   -626.30541    301077.09    15.111669 
15102000    2096.6763   -598.38949    311118.26    14.934905 
15102500    2044.2796   -724.10071    298670.22    15.808801 
15103000    2015.1703   -752.27184    300483.83    15.993318 
15103500    1996.4795   -739.38931    304949.49     15.75605 
15104000    1877.6243   -692.83703    295276.55    15.369488 
15104500    1916.8027   -649.57822    301037.05    15.041495 
15105000    2076.2798   -673.53266    301808.29    15.228438 
15105500    2079.9084   -704.88067    300917.69    15.520844 
15106000    2007.2019   -629.40128    294934.79    15.006452 
15106500    2050.2327   -637.49171    290728.72    15.010734 
15107000     2167.135   -654.45875    300520.99     15.25804 
15107500    1948.3182   -683.94757    301128.49    15.523068 
15108000    1888.5678   -684.05211    301655.22    15.410765 
15108500    2076.5907   -738.50687    303650.01    15.781517 
15109000    1932.9481   -676.11045    307118.32    15.334345 
15109500    1928.2779   -674.47545    296146.81    15.380636 
15110000    1962.2684   -688.16656     303978.2    15.481935 
15110500     1977.478   -688.09522    298751.09    15.371939 
15111000    2041.5048   -584.51382    294637.42    14.623014 
15111500    2002.6683    -566.1464    292524.44    14.583347 
15112000    1792.5958    -566.1302    297540.57    14.578397 
15112500    2093.9852   -585.27687    305419.22    14.616728 
15113000     2127.688   -601.54467    301223.67    14.714678 
15113500    2082.0532   -650.84011    298776.88    14.932359 
15114000    1925.5964    -618.9817     304315.3    14.765709 
15114500    1984.9102   -733.70817    302169.75    15.768153 
15115000    1901.8471   -749.93054    304001.27     15.67566 
15115500    2055.5161   -762.72824    305639.74    15.847308 
15116000    2155.2789   -755.68094    300072.18    15.661096 
15116500    2030.0103   -745.77616    305636.07    15.688836 
15117000    2175.2479    -663.2568    307609.84    15.240038 
15117500    1969.0315   -692.51769    302875.95    15.393111 
15118000    2204.9969   -634.39393    294560.03    15.011319 
15118500    2068.2037   -627.07608    305279.06    14.952321 
15119000     1934.436   -627.87758     300334.3    14.935765 
15119500    1826.8357   -649.87693    301138.31    15.153518 
15120000    2043.4474   -689.44229     299330.9    15.422178 
15120500    1919.6791   -651.06133    292349.06    15.144178 
15121000    2076.7659   -641.26955    298601.52    14.980296 
15121500    2064.1228   -642.26374    293075.23    14.977046 
15122000    2018.8479    -629.2141    304306.37    14.894315 
15122500     1927.575   -607.37044    300471.72    14.727258 
15123000    2131.5208   -646.91848    304126.76     14.81672 
15123500    1883.3456   -731.83161    300216.31    15.267062 
15124000    2155.7514     -736.617    301165.04    15.275981 
15124500    2040.0329   -762.75815    302600.07    15.528622 
15125000    1944.7673   -778.04589     293476.7    15.599628 
15125500    1972.2734    -788.0822    299107.89    15.607175 
15126000    1963.3275   -714.40346    301404.66    14.993388 
15126500     2001.313   -666.40785    305300.55    14.770203 
15127000    2130.8403   -679.01034    303493.75    14.841584 
15127500    1876.5767   -693.89099    296236.43    14.975877 
15128000    2040.0088   -657.90622    309532.44    14.732249 
15128500    1911.5753   -694.89317    301793.74    14.852853 
15129000    1928.6733   -687.51005    301493.88    14.847193 
15129500    1978.2368   -727.29638    294985.31    15.160313 
15130000    1922.6259   -669.23496    299695.94    14.795602 
15130500    1894.4264   -755.12805    301970.37    15.499529 
15131000    2063.0864   -757.27516    302963.76    15.512825 
15131500     2013.505   -773.19003    282633.54    15.638171 
15132000    1844.8964   -699.51221    297207.41    14.995773 
15132500    2015.8165   -618.64865    324056.14    14.482628 
15133000    2018.4085   -609.35058    320633.31    14.490255 
15133500      2050.72   -607.22667    306597.35     14.52544 
15134000    1849.2267   -615.01188    296853.79     14.52536 
15134500    2121.9984   -690.21187    298711.17    14.931087 
15135000    2088.8816   -729.09687    294417.83    15.092193 
15135500    2001.3056   -690.59813    300630.36     14.90538 
15136000    2073.0249   -680.83451    296172.81      14.8257 
15136500    2009.6328   -691.94392    293882.16    14.871247 
15137000    1952.7774   -663.80736    309648.22    14.754504 
15137500    1938.3881   -675.42972     298279.4    14.808225 
15138000    1970.9812    -698.1414    300275.38    14.888888 
15138500    1962.4597   -690.84124    308925.89    14.774174 
15139000    1872.5265   -695.11133     292094.3    14.914478 
15139500    2078.8775   -751.60003    301475.96    15.143285 
15140000     2027.914   -752.69013     300034.1    15.160122 
15140500    1911.6449   -725.38896     298234.5     15.12902 
15141000    2055.6046   -750.30842    302884.98    15.147952 
15141500    2004.4056   -766.00038    292053.85    15.152592 
15142000    1961.4916   -702.44419    297865.27    14.862373 
15142500    1785.9056   -681.15292    292386.32    14.833995 
15143000    1969.3777    -710.1972    298379.47    14.907093 
15143500    1823.4164   -661.95918     309127.8    14.724069 
15144000    2042.6574   -744.46392    306071.16    15.114892 
15144500    1823.3791   -754.38344    298827.15     15.19465 
15145000    2082.3253   -750.13203    304053.59    15.126567 
15145500    1902.3217   -761.72406    289256.23     15.20971 
15146000    1908.8898   -727.72943     300175.2    15.012389 
15146500    1916.0393   -787.13047    303636.38    15.586694 
15147000    1917.4266   -782.10802    305770.53    15.577097 
15147500    2050.7953   -783.31038    306895.71    15.393151 
15148000      2050.98    -752.4898    298502.33    15.317721 
15148500    2017.2325   -730.24315    301550.27    15.359005 
15149000    1998.4229   -741.75932    304039.19    15.364204 
15149500    2051.9077   -756.20044    301347.32    15.404673 
15150000     1837.297   -729.34412    291945.23    15.190877 
15150500    1981.1032   -680.54048    303030.77     14.77547 
15151000    2005.3732   -649.80995    296538.17    14.550087 
15151500    1856.4182   -612.09687    289207.45     14.52939 
15152000    1955.1078   -658.55666    305896.71    14.724512 
15152500    1945.8372   -689.66861    311341.34    14.780107 
15153000    1914.3941   -689.76769    305846.74    14.815265 
15153500    2010.3973   -716.27004     298286.2    14.933912 
15154000    2074.2381   -699.04408     307339.7    14.774837 
15154500    1971.8076   -711.54625    292999.65    14.857625 
15155000    1998.8986   -764.50709    294001.77    15.131075 
15155500    2052.2629   -746.46638    306558.09    15.123492 
15156000    2033.0221   -752.53332    299101.39    15.161986 
15156500    1972.4835   -711.24335     304173.1    15.043975 
15157000    2036.1794    -685.8652    295978.79    14.928536 
15157500    1859.7041   -712.79455    297423.71    15.100797 
15158000    1988.6203   -740.45404     301618.5    15.427415 
15158500    2093.9957   -759.70906    298793.29    15.531619 
15159000    2023.3193   -761.11299    298800.31    15.477198 
15159500    1911.1044   -748.94039    300849.35    15.390694 
15160000    1999.1294   -749.73161    299381.56    15.445273 
15160500    1886.1444    -755.8842    291715.18    15.565863 
15161000    2076.9371   -756.85405    298372.06    15.530645 
15161500    1984.4649   -739.20846    299171.96    15.416342 
15162000    1938.0124   -748.96896     304373.9    15.326531 
15162500    1974.0457   -746.97086    298138.08    15.458294 
15163000    2057.7337   -748.88334     303081.5    15.463306 
15163500    1873.4839   -779.22312    296617.57    15.857847 
15164000    2142.4553   -733.32843    303538.45    15.524515 
15164500    2067.9015   -689.56799    300094.56    15.324083 
15165000    1920.2763   -639.20974    292818.73    14.974762 
15165500    2065.4944   -633.83518    302727.07    14.956794 
15166000      2141.91   -628.19083    302131.74    14.915472 
15166500    1890.1605   -628.52452    301329.91    14.974042 
15167000    2034.1869   -631.64873    298675.67    15.114295 
15167500    1980.9291    -677.0501    302194.97    15.389609 
15168000    2126.8195   -744.33204    304828.83    15.837361 
15168500    2010.9728   -648.45992    299263.45     15.18279 
15169000    1990.3551   -632.92948    307273.22    14.986972 
15169500     2089.586   -645.22605    293176.28    15.073719 
15170000    1873.3413   -715.95243     293704.3    15.592127 
15170500    1920.9374   -737.36417    308920.83     15.47436 
15171000     1951.958    -727.2739    299990.48    15.349677 
15171500    1998.1896   -716.58936    295140.13    15.287964 
15172000    2163.3535   -722.67434    300367.59    15.407773 
15172500    1935.4442    -690.7733    302549.42    15.276544 
15173000     1996.295   -708.14119    298943.29    15.451964 
15173500    2115.5819    -626.3412    311176.48    14.915423 
15174000    1977.1717   -641.00098     294478.5    14.939652 
15174500    1890.7531   -686.35839    300261.61    15.249807 
15175000    1930.0848   -762.91432    303550.81    15.840443 
15175500    1945.7956   -791.10323    310822.66    15.790951 
15176000    2069.9537   -784.73594    295964.44    15.795087 
15176500    1867.3921   -759.09195    295219.44    15.495045 
15177000    2069.5624    -676.8729    295173.87     14.88703 
15177500    2079.3919   -672.83315    305665.04    14.809395 
15178000    2090.5258   -694.02345    298744.63    14.820753 
15178500    2006.3389   -693.31378    297828.75     14.84999 
15179000    1854.5755   -669.49261    305768.76    14.816706 
15179500    1861.0171   -677.50787    290508.24    14.837723 
15180000    2085.3711   -671.81668       297318    14.922741 
15180500    2114.0804   -670.80535    300012.37    14.843475 
15181000      1914.37   -646.32848    302148.45    14.809962 
15181500    1942.6273   -682.65879    301708.15    15.266575 
15182000    2015.2546    -755.5514    293936.05     15.56378 
15182500    1853.6482   -794.99887    308322.55    15.757249 
15183000    1911.3103   -781.52653    296888.51    15.680894 
15183500    1957.8975   -708.77736     302804.5    15.111563 
15184000    2042.2908   -737.15718    299734.11    15.162517 
15184500    1893.1258   -757.08394    300854.17     15.42076 
15185000    1987.9588   -792.03311    270027.52    15.850433 
15185500    2140.6195   -774.59192    303307.09    15.588303 
15186000    2140.5161   -758.90394    302795.27     15.44031 
15186500    2028.4491   -751.42777    296275.65    15.470586 
15187000    2087.3171   -745.93067    302491.74    15.371705 
15187500    2081.9914   -794.61548    301159.81    15.733839 
15188000    2014.4862   -791.47809    299377.38    15.774189 
15188500    2084.9426   -794.86145    307926.51    15.764761 
15189000    1998.6087   -783.32045    302389.49    15.646131 
15189500    1943.0233   -806.52134    302481.64    15.875396 
15190000    1914.4528   -803.71287    297469.89     15.85149 
15190500    1955.5006   -805.76657    258587.28    15.905171 
15191000    1946.8021   -724.83314       303019     15.13836 
15191500    2000.7231   -785.53244    301377.72    15.668253 
15192000    1949.5621   -779.80849    299918.84    15.521363 
15192500    1819.0032   -775.05731    299729.43    15.580491 
15193000     2033.773   -729.11603    307113.91    15.158666 
15193500    1837.1106   -789.11002    295252.98    15.717367 
15194000    1992.6143   -788.94044    302555.85     15.77623 
15194500    2034.2772   -785.76209    304664.18    15.635126 
15195000    2019.4922   -738.69095    300612.82    15.159589 
15195500    1979.2292   -739.84881    300981.47    15.224202 
15196000    2016.3188   -750.23584    301411.36    15.425084 
15196500    1911.6832   -755.36012    302125.84    15.451139 
15197000    2005.2237   -757.72391    302937.38    15.565267 
15197500    1954.3557   -793.66426    297534.66     15.70995 
15198000    2125.9944   -794.84315    307449.28    15.732974 
15198500    2211.7308   -752.32348    302052.88    15.399372 
15199000    1982.1926   -718.51221    297236.55    15.304022 
15199500    1971.3712   -720.99834    298730.25    15.181399 
15200000    2107.3047   -765.98919    293889.92    15.478814 
15200500    2089.2033    -761.5306    302044.49    15.489961 
15201000    1920.1885   -735.05152    301404.07    15.425988 
15201500    2018.0944   -790.96427    303072.87    15.764978 
15202000    2076.8997   -789.54252    304361.44    15.789181 
15202500    1992.6041   -726.05026    303657.84    15.046864 
15203000    2088.6518   -732.44681    304823.95    15.051552 
15203500    1952.0137     -727.184    312266.89    15.034856 
15204000    1871.8573   -750.98621    299178.74     15.13799 
15204500    1909.7749   -743.27082    300284.12     15.21657 
15205000    2171.5266   -753.86934    299657.66    15.192719 
15205500    1915.0487   -652.49653    303639.85    14.732992 
15206000     2085.905   -747.87511    306269.87    15.395413 
15206500    1918.9296   -786.67201    298969.85    15.635324 
15207000    1989.7809    -788.5725    299934.92    15.523716 
15207500    1970.6792   -787.36429    304301.25    15.512144 
15208000    2103.2804   -795.58195    300718.43    15.455733 
15208500    1899.2205   -793.03587    292978.46    15.658612 
15209000    1918.2938   -753.98155     299016.4    15.209481 
15209500    2229.8255   -750.22316    301706.28    15.211393 
15210000    2188.0773   -752.30593    298073.56    15.197207 
15210500    1825.1604   -768.01201    295086.64    15.498348 
15211000    2035.8868   -692.91851    298704.44    14.940603 
15211500    2036.2749   -696.13892    304875.66    14.809853 
15212000     2073.002   -774.72903    301172.85    15.604608 
15212500     1840.039   -791.22777    298857.42    15.697248 
15213000    2112.7619   -793.14789     297027.8    15.575172 
15213500    1866.1965   -786.50253    298693.04    15.666526 
15214000    2012.7534   -709.60389    302940.69     15.05056 
15214500    2025.0994    -681.9749    301327.09    14.888003 
15215000     2057.578    -752.5878    298359.98    15.332894 
15215500    2180.0933   -726.34289    306399.68    15.064747 
15216000    2029.2414   -772.23325    300858.16    15.580367 
15216500    1949.6929   -757.56994    299470.08    15.491274 
15217000    2068.5293   -763.85314    297482.17    15.480975 
15217500    1948.1838   -750.17937    299522.12    15.488907 
15218000    1897.0122    -756.1861    298779.61    15.632735 
15218500    2095.2623   -761.17866    301965.84    15.866709 
15219000    2019.7869   -751.98484    304929.14     15.74155 
15219500    2052.6071   -728.57404    298281.25    15.595699 
15220000    1981.0492   -711.30555    301084.96    15.485236 
15220500    1994.2046    -686.0049    297416.58    15.436772 
15221000    1948.8718    -729.3294    294156.94    15.775476 
15221500     2061.966   -701.83072    301222.63    15.380805 
15222000    2087.2225   -645.63607    302999.98    15.117752 
15222500     1908.131   -724.14262    297754.44     15.93411 
15223000    2012.9774   -702.74373    294750.67    15.887934 
15223500    2070.7144   -728.46596       301825    15.913209 
15224000    1843.6005   -655.82244    300737.64    15.294939 
15224500    1913.7027   -716.51129    299413.89    15.649709 
15225000    2024.6875   -742.54589    301478.87     15.80032 
15225500    1975.5249   -729.27775    300220.43    15.472906 
15226000    2179.9569   -748.27069    299059.68    15.479482 
15226500    2080.0148   -767.60499    303362.54    15.716938 
15227000    1884.6357   -767.01456    303294.12    15.623567 
15227500    1951.6118   -719.55004    302569.15    15.198216 
15228000    1998.6713   -694.90651    299220.19    14.980713 
15228500    2079.2984   -655.95843     301274.6    14.798649 
15229000    2159.3156   -656.25786    299854.12    14.845482 
15229500    2045.9238    -758.1354    296243.58    15.711264 
15230000    1916.1762    -767.5803    295944.82    15.867494 
15230500     1956.406   -689.97832     300517.5    15.048715 
15231000    1933.0434   -646.40564    293244.23    14.825473 
15231500    1942.9776   -647.89631    297286.23    14.897607 
15232000    2118.0918   -650.54862    298194.16    14.923274 
15232500    1959.1809   -580.87026    304838.68    14.579462 
15233000    2172.6844   -643.33185    300637.75    14.792456 
15233500    1920.0593    -619.1099    291771.98    14.665979 
15234000    2038.2766   -729.98758     303854.3    15.271629 
15234500    2028.2308   -744.54353    296842.73    15.452176 
15235000     1967.331   -722.17247    301033.61    15.497519 
15235500    1969.6066   -743.47718    302009.45    15.689703 
15236000    2117.3301   -754.79661    302178.62     15.73179 
15236500    2142.6173   -749.32677    300144.42    15.543691 
15237000    1957.7718   -596.65862    300940.06    14.594975 
15237500    2011.9862   -573.03354    299585.46     14.56143 
15238000     1801.686   -556.66189    343823.73    14.523364 
15238500    2152.0578   -633.94766    301119.19    14.767621 
15239000    1982.4669   -617.71705    292800.49    14.613122 
15239500    1914.9198   -606.12768    292924.96    14.524078 
15240000    2043.0342   -599.55633    307268.88    14.494788 
15240500    1977.0323   -633.45213    308532.16    14.690744 
15241000     2013.809   -609.50376    291040.14    14.618921 
15241500     1926.559   -575.91622    320712.48    14.548637 
15242000    1973.4786   -580.93493    312496.74    14.492745 
15242500    1799.2132     -652.108    289768.87    14.946524 
15243000    2008.8351   -625.97642    289301.57    14.825521 
15243500    2059.2263   -632.94942    307656.71    14.901302 
15244000    1930.7975   -624.04421    305031.99    14.975048 
15244500    2027.6016   -613.04171    300643.16    14.910593 
15245000    2008.8065   -616.68829    303233.29    14.872038 
15245500    1864.0667    -702.1676    292761.23    15.443024 
15246000    1893.3205    -726.9945    299629.53    15.673562 
15246500    1923.3229   -656.07494    299178.72    15.147737 
15247000    1912.6145   -689.03239    298754.79    15.407195 
15247500    1959.7171   -629.11765    294254.68    14.960409 
15248000    2143.1601   -698.43532    301274.64    15.432059 
15248500    2066.2309   -743.58953    298346.34    15.548868 
15249000     2114.278    -756.6394    294982.93    15.612045 
15249500    1840.7378   -750.18155    300500.66    15.680024 
15250000    1976.4301   -741.81376    288564.84    15.615735 
15250500    1864.5875   -759.67548    307065.29    15.733764 
15251000    1882.6707   -714.27914    300764.88     15.43773 
15251500    1953.6588   -715.61329    297583.43    15.553831 
15252000    1926.9297   -728.91056    304176.96    15.701228 
15252500    1904.8144   -737.67573    304037.82     15.67288 
15253000    1973.3953   -765.15474    296549.95    15.816666 
15253500    2023.2003   -752.93763    295529.81    15.549275 
15254000    1912.9762   -759.77682    280651.89    15.911347 
15254500    2051.2864   -751.96665    300770.07    15.645226 
15255000    2157.0547   -758.55022    293248.12     15.46571 
15255500    1965.5312    -746.1283    304372.22    15.390975 
15256000    2047.2661   -744.74823    305655.39     15.41759 
15256500    2202.9261   -744.85502     307415.7    15.399455 
15257000    2058.3279   -749.70449    298243.99    15.581303 
15257500    1869.4321   -780.57234    282356.65    15.845711 
15258000    1885.3947   -773.69375    314302.95    15.851165 
15258500    1921.2275   -770.86311    303752.04    15.714962 
15259000    2035.5351   -734.85984    303555.31    15.571812 
15259500    2065.0282   -731.34612    300870.71    15.411512 
15260000    1978.3378   -764.99016    297850.27    15.493903 
15260500    2051.7549   -744.96091    310059.35     15.49417 
15261000    2149.4134   -753.11278    292388.52    15.537033 
15261500    2190.0123   -709.04067     304865.2     15.06779 
15262000    2055.4102   -762.66403    301208.66    15.542435 
15262500    2049.5396   -729.78629    296519.16    15.204396 
15263000    2199.6101   -745.35287    303300.33    15.418223 
15263500    2015.9077   -757.51281    297320.15    15.369829 
15264000    1898.7354   -706.45235    291348.58    14.881886 
15264500    2110.3453   -742.62504    306802.72    15.047982 
15265000    1964.8288   -757.80577    293741.51    15.212634 
15265500    2268.3627    -742.6436     312955.7    15.124103 
15266000    2082.0625    -652.5629    309005.43    14.712825 
15266500    1878.4335   -712.40154     295915.8    15.078823 
15267000    1910.8612   -723.63969    294289.57     15.14305 
15267500    2138.3958   -744.80947    301145.32     15.19402 
15268000     1957.845   -792.44701    293126.38    15.716787 
15268500    2333.8712   -750.22776    304253.04    15.404978 
15269000    1851.7245   -754.16653    301070.72    15.483774 
15269500     1945.305    -790.9977    292629.99    15.754503 
15270000    1856.6133   -770.68958    300885.34    15.517885 
15270500    1908.7764   -779.83424    300156.56    15.593226 
15271000    1934.0607   -766.63223    294152.47    15.337936 
15271500    2075.1134   -700.47218    299405.27    14.857421 
15272000    2181.6227   -694.12457     301778.5    14.806903 
15272500    2150.5872   -702.65831    297736.35    14.823843 
15273000    2097.7238   -695.06968    298961.93    14.832676 
15273500    2099.2542   -685.60151    304069.42    14.873057 
15274000    1928.6997   -716.96059    301892.89    15.058081 
15274500    2010.3862   -774.35432    288510.75    15.615975 
15275000    2136.7546   -787.29656    261259.61    15.855382 
15275500    2027.8069   -774.73412    299557.62    15.650752 
15276000    1956.2279   -662.87553    308754.27    14.787719 
15276500    2167.6344   -690.94561    305723.97    15.022916 
15277000      2196.74   -761.58832    299523.25    15.488316 
15277500    1984.4527   -721.73648    294807.14     15.13585 
15278000    2084.6791   -760.11442    297800.02    15.550486 
15278500    1801.2743   -748.00439    300788.25    15.366108 
15279000    2036.0138   -689.12911    295357.09    14.941766 
15279500    2066.8015   -678.69542    296976.18    14.925854 
15280000    1944.2494   -696.08629    301397.03     15.09576 
15280500    2238.1493   -734.76538    298897.75    15.254049 
15281000    1935.8251   -788.68276    297583.76    15.742124 
15281500    1856.3195   -784.32554    304893.53     15.69034 
15282000    1932.9289   -786.09408    308729.42    15.710343 
15282500    2091.9851    -734.9945    302689.11    15.059204 
15283000    1983.7736   -711.34627     295707.9    14.888113 
15283500    2087.3214   -755.76907    296432.32    15.232647 
15284000    2055.5418   -746.19617    302321.23    15.245924 
15284500    1832.8376   -760.35874    294025.88    15.586646 
15285000     2032.614   -785.05729    291170.16    15.780141 
15285500    1977.4695   -776.50202    300582.13    15.812879 
15286000    1854.9074   -784.69749    265552.66    15.914029 
15286500    2099.5804   -773.64617    276187.99    15.904453 
15287000    1934.8047   -764.22773    289914.01    15.687087 
15287500    1973.4115   -741.92924    302594.57    15.533981 
15288000    1861.5484   -729.97216    301253.73    15.559335 
15288500    1848.3711   -717.61143    300359.58     15.55446 
15289000    1991.2522   -700.46244    294274.41    15.517852 
15289500    1866.5201    -698.0157     296013.8    15.503735 
15290000    2110.3128   -673.99376    303510.59    15.311562 
15290500    2055.4302   -691.14407    296730.91    15.471387 
15291000    1730.0299   -746.33913    301902.92    15.717192 
15291500     2067.318   -756.29239    300761.51    15.634174 
15292000    2047.4183   -739.64618    305406.11    15.554667 
15292500    1990.9218   -765.13291    305884.83    15.781757 
15293000    2144.3999   -761.35631     305298.3    15.596191 
15293500     2026.535   -766.63905     295809.2    15.625876 
15294000    2111.8928   -720.76523    302420.37    15.457868 
15294500    1815.6194   -700.38372    299584.85    15.405135 
15295000    2028.6034   -742.59529    302995.13    15.591328 
15295500    2008.4761    -658.0962    298856.18    15.155377 
15296000    1923.9512   -674.62383    296335.77    15.214242 
15296500    1981.5764   -701.81517    298759.36    15.482346 
15297000    2088.1693   -743.31501    305792.42    15.563926 
15297500    2029.3758   -753.49461     303063.6    15.641431 
15298000    2087.5163   -758.80951    301232.96    15.535495 
15298500      2020.08   -753.20865    301880.31    15.566072 
15299000    1909.7014   -763.93018    299879.42    15.677594 
15299500    2090.0024   -729.58402     304128.3    15.105554 
15300000    2063.1172   -752.33663    298943.93      15.2413 
15300500    2084.1701   -760.97982    293758.26    15.222885 
15301000     1938.164   -734.76669    297690.14    15.163349 
15301500    2059.0878   -718.33976    300047.77    15.040434 
15302000    1848.8537   -757.13705    295302.36    15.541534 
15302500    2161.2627   -798.20548    305056.21    15.754548 
15303000    2085.0264   -721.71484    303430.67    15.060626 
15303500    1851.3898   -702.62899     295613.7    14.914636 
15304000    2158.8629   -749.57125    300324.52    15.255307 
15304500    1978.2609   -651.06096    301886.37    14.672176 
15305000    2131.5109   -697.43701    291035.45    14.916691 
15305500    1861.3013   -627.05273    291559.45     14.54787 
15306000    2000.0097   -623.56387    292304.23    14.556234 
15306500    1915.2387   -622.12907    305113.37    14.514602 
15307000    2005.2751   -612.76923    295342.89    14.516921 
15307500     2046.998   -646.26724    295781.34    14.588037 
15308000    1984.0353   -652.76138    293191.24    14.607452 
15308500    1854.8151   -658.14078    291697.59    14.584166 
15309000    2046.9147   -656.41295    293013.59    14.566531 
15309500    2013.3704   -647.88756    295570.28     14.56261 
15310000    1959.9868   -640.45783    325683.58    14.506948 
15310500    1963.9563   -640.67498    292004.38    14.614675 
15311000    1855.7429   -612.11036    294829.53    14.527728 
15311500    2037.1703    -592.9548    345187.21    14.510697 
15312000    1900.2827   -609.33494    312815.17    14.499408 
15312500    2022.0771   -601.14374    300849.42    14.531747 
15313000    1877.9726   -609.89458    290398.88    14.576934 
15313500    1954.6965     -614.843    278976.67    14.573165 
15314000    1934.4551     -701.212    294785.23    14.951932 
15314500    1858.5223   -699.76973    301175.41    15.022861 
15315000    1992.3044   -660.98344    304096.26    14.744491 
15315500    1945.9065   -703.64447    301181.04    14.999013 
15316000    1874.7947    -703.6797    294932.58    14.880332 
15316500     2133.626   -712.64336    295357.51    14.947817 
15317000     2006.757   -618.76894    277403.01    14.554902 
15317500    2008.9794    -620.5119    287407.26    14.548595 
15318000    2075.2367   -599.60525    321711.26    14.503805 
15318500    2168.5188   -623.27621    291665.39    14.533926 
15319000    1976.6468   -619.61925    301577.21    14.533037 
15319500    1932.1437   -616.55943    277789.39    14.562249 
15320000    1968.7767   -632.00406    308138.86    14.554493 
15320500    2020.4613   -660.80625    304396.55    14.674141 
15321000    1990.7928   -705.72534    300441.63    15.090491 
15321500    2020.4386   -672.90887    305503.11    14.781496 
15322000    2075.5138   -667.45763    302475.92    14.802077 
15322500    2161.7627   -678.18124    309190.15    14.783553 
15323000    1959.9262   -778.96393    294943.08    15.628496 
15323500    2087.3936   -790.71334    314812.74    15.733586 
15324000    1937.1697   -794.40483    299622.13    15.773708 
15324500    2018.2258   -785.77901    315700.05    15.720208 
15325000    2004.0555   -776.57527    303985.96    15.473921 
15325500    2017.6787    -781.2197    303315.82    15.623352 
15326000    1913.5597   -792.01904    300808.18    15.488828 
15326500    1866.0798   -787.47376    304999.01    15.422667 
15327000    1858.5245   -794.69866    307184.97    15.404179 
15327500    2036.5953   -787.26317    305884.43    15.453015 
15328000    1947.0747   -723.21222    295180.83    15.030359 
15328500    2038.2645   -711.15197     297203.1     14.82197 
15329000    2019.4084   -687.05419    301970.19    14.797124 
15329500    2007.4967   -700.01441    291622.46    14.911482 
15330000    2110.2921    -709.0715    308348.59     15.04667 
15330500    1965.6918   -746.75458    302034.13    15.366545 
15331000    2066.4205   -714.77067     295810.9    15.243574 
15331500    1918.5755   -664.07695    303493.53    14.777546 
15332000    1942.0207   -779.60471    299442.56    15.641622 
15332500    1956.9329   -785.98381    309186.22    15.773543 
15333000    2029.8152   -805.81194    276912.05    15.872702 
15333500    1883.0821   -784.95218     297372.5    15.632724 
15334000     2075.334   -778.26581    303257.98    15.451924 
15334500    2022.4673   -755.67108    303306.65    15.485933 
15335000    1861.7709   -747.89393    296547.22    15.255035 
15335500    1918.9088    -741.0009    301272.11    15.184137 
15336000    2157.7406   -727.91742    302703.73    15.195331 
15336500    1997.6024    -782.2058    306235.33    15.850809 
15337000    2121.4594   -784.62283    307284.43    15.801708 
15337500    2266.4012   -713.04646    302795.21    15.137658 
15338000    1971.3662   -716.64514    308476.34    15.084475 
15338500    2121.3373   -679.48843    305307.39    14.773773 
15339000    1941.9361   -680.40234    305578.63    14.762524 
15339500     2005.648   -651.04288    294797.15    14.638419 
15340000    2126.2775   -629.72524    324959.94    14.508063 
15340500    1861.3123   -730.40825    293910.58    15.197977 
15341000    2095.0658   -741.68172    301658.54     15.30579 
15341500    2094.6522   -741.21203     301374.6    15.236473 
15342000    1909.1437   -723.19967    296571.29     15.10312 
15342500    1834.1676   -670.47744       308964    14.722947 
15343000     1868.023   -749.13668    295997.04     15.19549 
15343500    2051.6158   -753.40212    299834.09    15.207098 
15344000    1825.4413    -750.9133    295743.91    15.161829 
15344500    1915.7826   -740.81575    299393.16    15.137632 
15345000    2153.5976   -762.31076    300244.39     15.38817 
15345500    1923.6477   -676.87553    310125.91    14.753697 
15346000    2097.4077    -669.2901    306407.64    14.748671 
15346500    2000.6972   -692.95018    289731.92    14.917245 
15347000    1988.9146   -712.54852    300576.46    15.128795 
15347500    2130.2096   -746.95604     306522.4    15.347003 
15348000    2001.0525   -697.02331    305481.31    14.928827 
15348500    1947.8816   -682.29442    298603.91    14.831774 
15349000    1862.0454   -710.14278    288872.88    14.894274 
15349500    1853.3776   -705.98901    294656.73    14.849212 
15350000    2000.0399   -683.29553     310118.6    14.771938 
15350500    2009.5919   -708.04636    298237.48     14.87568 
15351000      1931.23   -668.67918    300891.95    14.758857 
15351500    2085.6407     -705.092    304002.14    14.885039 
15352000    1928.8506   -664.74241    307434.21    14.753334 
15352500    2223.5915   -655.24828    304692.43     14.78019 
15353000    1830.1584    -725.5085    289444.29    15.195166 
15353500     2136.689    -719.5243    300319.43    15.082834 
15354000    1878.9095   -751.36565    295255.21    15.422608 
15354500    1826.0972    -754.4338    293612.09    15.427751 
15355000    2115.7577   -740.08879     305277.8    15.309468 
15355500    1968.1114   -703.93081       298870    14.969669 
15356000    1915.9107   -770.57118    297641.85    15.426959 
15356500    1991.6622   -806.09534    265546.78    15.890869 
15357000    1971.2902   -791.12103    298654.01    15.699916 
15357500    1931.7384    -795.3938    295872.52    15.717721 
15358000    1840.4663   -799.13008    288990.32    15.663883 
15358500    2014.2203   -781.15062    308771.24    15.538836 
15359000    2141.1489   -784.67195    302383.52    15.634301 
15359500    2012.6482   -784.11697     310536.1    15.412286 
15360000     1944.137   -705.57219    295788.72    14.868975 
15360500    1963.9302   -684.98285    294458.12    14.887391 
15361000    1871.6387   -670.25981    302118.09    14.785761 
15361500    2088.2368   -670.80322     310676.6    14.780156 
15362000    1924.7279   -678.00033    301794.89    14.928513 
15362500    2118.7017   -698.60483    306186.09    15.003442 
15363000    1986.4495   -714.65756     301290.1    15.103159 
15363500     2098.845   -744.62933    308564.95    15.062179 
15364000    2161.9287   -749.63289    302146.63    15.193598 
15364500    1953.7616   -750.85593    304362.41     15.14341 
15365000    2006.3121   -765.07204    297911.99    15.312459 
15365500    2331.0089    -759.7927    301521.02     15.17681 
15366000    1845.7664   -744.48403     300621.5    15.358273 
15366500    1994.9479   -791.89229    305498.59     15.80089 
15367000    1811.0654   -738.00766    296969.93    15.209205 
15367500      1952.45   -666.05396    296948.06    14.800786 
15368000    2028.7866   -683.59015    300200.78      14.8214 
15368500    1861.2353   -704.77775    300633.28    14.819303 
15369000    1848.7801   -704.12763    292202.52    14.865463 
15369500    1903.5912   -710.36155    297238.48    15.147454 
15370000    1921.2062    -755.7342    299922.68    15.478015 
15370500     1923.008   -750.17902    308176.23    15.502321 
15371000      1911.14   -744.81487    306311.36    15.535646 
15371500    2003.9327    -758.7764    299583.31    15.566235 
15372000    2107.7218   -701.62803    300562.87    15.087253 
15372500    2079.9922   -717.04799     302842.8    15.074508 
15373000    1950.5067   -704.20685     307697.4    15.061847 
15373500    1939.6403   -639.96524    305940.27    14.667423 
15374000    1937.1985   -698.42845    305365.22     15.00328 
15374500    2080.8146   -705.29858    301952.67     15.04588 
15375000    1849.9719    -735.2882    298314.18    15.291686 
15375500    2056.5602   -706.43105    302202.01    14.950354 
15376000    1911.9891   -738.60994    305725.28    15.277436 
15376500    1951.9767   -778.57978    277413.59    15.874548 
15377000      1952.64   -767.51772     294068.5    15.539699 
15377500    1939.9012   -753.02986    285823.56    15.552675 
15378000    2036.3655   -757.80159    305498.79    15.734027 
15378500    1893.8742   -769.67475    307208.89    15.863556 
15379000    2206.1045   -769.00021    313662.76    15.824971 
15379500    2087.3448   -753.07074    300179.57    15.624585 
15380000    2018.8147   -746.20145    297235.07    15.602212 
15380500    1892.9366   -760.09749    307420.67    15.782762 
15381000    2075.7848   -759.84201    307990.16    15.801069 
15381500    2330.0871   -766.41116    304759.78    15.838229 
15382000    1898.8248   -699.40745    296694.18    15.467916 
15382500    1991.7955   -703.46046    295690.81    15.478722 
15383000    2053.1946   -708.91651    301334.09     15.44048 
15383500    1970.9018   -670.89907    303675.11    15.313179 
15384000    2156.6852   -629.92993    300106.77    15.028648 
15384500      2164.93   -721.43185    298710.98    15.644908 
15385000    1809.4713   -713.32587    295913.65    15.569646 
15385500    2046.0403   -672.60583    299672.64    15.363209 
15386000    2090.2725   -697.42488    296301.01    15.565543 
15386500      2030.48   -677.90771    296870.34    15.470005 
15387000    2069.0416   -717.02428    300124.49    15.780887 
15387500    2064.8946    -671.0758     299865.4    15.382298 
15388000    1967.7087   -693.36381    301815.57    15.396371 
15388500    2028.8959   -624.80018    295002.44    15.059257 
15389000    2067.6409   -611.09155     301345.7    14.887433 
15389500    2147.8348   -665.99568    300263.54    15.366885 
15390000    2081.6879   -714.04583    300718.57    15.689159 
15390500    1958.6898   -647.09776    299473.51    15.218914 
15391000     2080.089   -695.98772    301770.55    15.602384 
15391500    1965.0071   -749.62268     299288.9    16.067025 
15392000    2005.0259    -674.4776    298841.16    15.483879 
15392500    2105.3105   -681.07556    303175.72    15.419404 
15393000    2017.3745   -659.83203    301698.04    15.318207 
15393500    2185.5552   -753.22791    281094.91    16.121304 
15394000     2042.652    -713.2894    300007.78    15.842721 
15394500    1906.6461   -731.94122    295733.14    15.968518 
15395000      1957.83   -666.95853    297848.13    15.333429 
15395500    2073.9496   -643.23695    305980.19    15.139777 
15396000    2044.1374   -622.96248    294290.29    15.066178 
15396500    1929.4436   -638.63749    302167.46    15.243824 
15397000    1813.2339   -722.55161    291917.95    15.966057 
15397500    2028.0463   -711.58239    298268.45    15.813086 
15398000    1978.1374    -654.5241    300044.96    15.239133 
15398500    1976.3318   -611.45464    298825.57    15.049062 
15399000    1875.1692   -631.67933    291381.26    15.170401 
15399500    2014.2009   -638.36577    297603.19    15.208774 
15400000    1836.1678   -732.78412    298502.31     15.87953 
15400500      2111.01   -744.05883    295470.01     16.04781 
15401000    1997.3851   -717.38492    304321.47    15.664981 
15401500    1905.5681   -748.59875    297888.47    15.833954 
15402000     1932.174   -747.59103    298966.03    15.860959 
15402500      1990.75   -736.55452    302018.09    15.750481 
15403000    2108.6874   -756.38229    295754.62    15.948858 
15403500    1828.2293   -750.27108    304612.21    15.749044 
15404000    1908.8253   -761.89987    301576.56    15.816124 
15404500    1938.7497   -770.79007    294338.44    15.869293 
15405000    2017.2343   -779.53684    309165.83    15.834725 
15405500    2044.7206   -771.24973    285916.91    15.871758 
15406000    2079.9981   -745.35261    305974.03    15.739202 
15406500    1878.5219   -724.37002       298392     15.68266 
15407000    1927.0663   -752.95559    286985.88    15.906688 
15407500    1868.1187   -765.27532    300029.52    15.779021 
15408000    1945.3122   -774.37045    295526.88    15.881314 
15408500    2073.7525   -769.25588     297464.7    15.892124 
15409000    1988.4747   -764.80696    298874.53     15.79709 
15409500    1987.7761   -760.09934    299339.63    15.861771 
15410000    1867.9207   -744.92525    300409.22    15.777777 
15410500    2049.6199   -755.49778    300234.74     15.79759 
15411000    2305.4372   -753.80601    302736.41    15.836495 
15411500    2002.0416   -757.19222    304156.26    15.669071 
15412000    2009.0185   -737.33256    307000.89    15.553285 
15412500    2049.7731   -731.70905    301488.99    15.217208 
15413000    2115.4974   -752.19851    305345.56    15.428239 
15413500    2047.0249   -758.41707    298218.02    15.410498 
15414000    2038.1056   -749.15883    303432.35    15.423718 
15414500    2129.5525   -748.27703    306533.74    15.391236 
15415000    1782.7116   -759.28453    292404.79     15.57159 
15415500    2012.9113   -767.85417    289091.31    15.604179 
15416000    2189.4278   -633.81665    307713.16    14.701456 
15416500    1961.4836   -752.37184    305728.24    15.429102 
15417000     2048.861   -755.56137    291314.88     15.52237 
15417500    2006.9629   -774.51902    300852.68    15.639664 
15418000    1950.3347   -789.57238    305208.27    15.724298 
15418500    1900.6927   -765.56055    293968.43    15.305106 
15419000    2030.1003   -741.22378    302894.37    15.188675 
15419500    1899.9829   -728.62157     299062.6    15.130141 
15420000    1918.4351   -747.93388    302890.76    15.353198 
15420500    1952.4723   -740.84676    300829.87    15.308813 
15421000    2087.3303   -712.12488    302173.21    15.133886 
15421500    1979.3473    -675.3765     299623.2    14.935145 
15422000     1962.385    -664.0652    302982.72    14.781663 
15422500      2119.47   -702.45718    301009.34    14.830897 
15423000    2139.3138   -718.36376    294285.91    14.895617 
15423500    1997.9123    -713.6013    287464.82    14.864859 
15424000    1970.3031   -682.91976    311382.15    14.751219 
15424500    1954.4586   -711.16695    291510.64    14.905907 
15425000    1918.6617   -697.74189    303162.18    14.822555 
15425500    2062.7954   -701.05305    313324.41    14.767075 
15426000    2064.2199   -708.81802       299237    14.826217 
15426500    1854.9752   -670.10411    292227.27    14.771067 
15427000    1886.4037   -664.37719    301776.39    14.766743 
15427500    2172.1718   -738.83173     297746.2    15.271516 
15428000    2259.3201   -747.79176    303738.14    15.499313 
15428500    2055.7667   -758.75527    287312.51    15.661871 
15429000    1918.2738   -763.85044     303642.3    15.784425 
15429500    1892.0327   -758.92837    303156.35    15.800484 
15430000    1758.3829   -780.43158    283617.84    15.912329 
15430500    1946.7117   -764.54526    303374.07    15.873232 
15431000    2015.4361   -786.22413     287025.8    15.867221 
15431500    1822.1541   -784.90308    302448.54    15.858382 
15432000    1992.5936   -786.69329    300784.53     15.73802 
15432500    2113.8953   -788.02336    311533.29    15.772741 
15433000    2083.2011   -737.30984    299702.19    15.187043 
15433500    2168.8243   -782.36005    303704.28    15.628221 
15434000    2174.6721   -779.66766    303998.05    15.549311 
15434500    2128.8984   -785.92398    303812.35    15.595427 
15435000     2108.088   -784.96018    289412.32    15.741592 
15435500    1972.7236   -794.52133    298063.49    15.749522 
15436000     1933.017   -744.79321    297992.04    15.341735 
15436500    2051.4526   -660.45444    306720.65    14.761993 
15437000     2038.454   -761.80273    297544.56    15.550942 
15437500    1861.8447   -748.62304    280356.47    15.532461 
15438000    2107.2639   -742.50995     296749.3    15.506604 
15438500    2170.5056   -733.51671    307528.69    15.553886 
15439000    2047.7728   -676.10383    304941.83    15.283004 
15439500    2040.1211   -636.69234    298510.09    14.963203 
15440000    2158.7503   -645.96639    292320.97    14.986791 
15440500    1906.9051   -652.82785    290746.13    15.016306 
15441000    2029.2075   -631.94974    306236.64    14.865925 
15441500    2293.8795    -683.6944    304734.62    14.943287 
15442000    2040.2034   -675.29349     298734.2    14.854786 
15442500    1978.5941   -656.76205    308268.85    14.763728 
15443000    2039.4243   -745.73714    306363.51     15.40024 
15443500    2052.6139   -759.62999    298500.32    15.501248 
15444000    1945.6449   -777.64419    291368.61    15.627421 
15444500    2110.4388   -737.07375     307382.3    15.148912 
15445000    2065.0337   -698.89105    292266.12    14.883314 
15445500    1823.3708   -695.70334       302005    14.839666 
15446000    2019.5112   -690.51806    307044.53    14.780079 
15446500    1852.9542   -692.51157    302144.88    14.836813 
15447000    2092.6402   -699.41426    298586.39    14.833473 
15447500    2087.2792    -694.2544    304685.63    14.853086 
15448000     1924.826   -686.75059    305259.88    14.760952 
15448500    1891.6428    -697.7888    299571.07    14.936377 
15449000    1862.1285   -663.49894     310861.6    14.710027 
15449500    1835.3547   -706.81569    292571.43    14.869935 
15450000    1972.6247   -711.27252    295287.72    14.843823 
15450500     2091.697   -710.42541    293673.37    14.851336 
15451000    1992.0169   -708.35874    293206.49    14.922915 
15451500    1896.7588   -751.49904     301575.4    15.477921 
15452000    1949.7731   -747.08378    305624.71    15.471149 
15452500    2027.8247   -752.34575     298069.6    15.385023 
15453000    1978.5469   -742.10742    305028.38     15.33699 
15453500     2045.366   -751.21003    293278.22    15.488197 
15454000    2300.8576   -754.05324    306274.85    15.432356 
15454500    2074.7234   -714.39313    299085.33    15.239204 
15455000    1932.7465   -735.32841    299293.58    15.282446 
15455500    2111.8739   -645.34189    307241.26    14.742512 
15456000    1934.8267   -707.36565    297612.38    15.252987 
15456500    2144.4998   -761.59194    300727.42     15.54722 
15457000    2039.8235   -694.88745    303109.47    15.182278 
15457500     2122.469   -768.09195    316314.24    15.779916 
15458000    1817.7596   -793.81316    306136.89    15.831089 
15458500    2005.8257   -789.24011    289842.58    15.816968 
15459000    1942.7032   -755.81462    298826.16    15.387627 
15459500    1965.1707   -755.63311    290863.94    15.223701 
15460000    1921.4088   -747.33534    303061.07    15.111241 
15460500    2042.7211   -754.56372    301586.61    15.132302 
15461000    1801.4029    -754.0349    294401.31    15.237462 
15461500     1955.451   -758.46444    298761.21      15.4335 
15462000    1914.7353   -758.58898    301451.17    15.543035 
15462500    1809.5089   -728.35271    301743.62    15.136364 
15463000    2024.5825   -788.26606    296050.67    15.544607 
15463500    2070.8639   -742.25369    306999.62    15.169363 
15464000    1948.9938   -761.81753    302079.88    15.498426 
15464500    1892.8753   -757.04982    301926.78    15.467439 
15465000    2062.5662   -749.12591    302342.24    15.360084 
15465500    2108.8351   -752.16029    304236.56    15.447397 
15466000    2070.6089   -753.88074    301246.07    15.394205 
15466500    2229.6632   -756.88494    297743.72    15.304277 
15467000    2039.2865   -750.28472    306166.33     15.13604 
15467500      1946.04    -761.8732    297899.13    15.128088 
15468000    1948.7762   -748.04484    303099.01     15.13184 
15468500     1805.244   -762.99984    291022.11    15.153395 
15469000    1940.7492   -764.18754    296712.14    15.160445 
15469500     1934.771   -752.98792    303893.05    15.132047 
15470000    2000.7718   -743.37536    306674.74    15.164566 
15470500    2005.5842   -685.56964    318123.97    14.720443 
15471000    1925.0682   -770.11178    295071.14    15.329805 
15471500    2091.4036   -741.13125    310501.11     15.09899 
15472000    2044.8954   -744.62114    303838.36    15.225001 
15472500    2187.5381   -675.05581    305375.87    14.806112 
15473000    1966.8655   -673.42879    300759.21    14.791772 
15473500    1930.6792   -748.60925    296973.17    15.230782 
15474000    2103.5303   -704.10863    296136.38    14.893992 
15474500    2045.4156   -679.94808    311315.35    14.752662 
15475000    1996.4213   -711.65435    293186.78    14.902623 
15475500     1938.472   -684.02029    297122.51    14.807757 
15476000    1768.4865   -672.04267    290983.72    14.814364 
15476500    2013.5302   -705.97163    295786.62     14.88135 
15477000    1850.4729     -774.585    291826.36    15.504152 
15477500    1994.1975   -705.59245    301800.98    14.895118 
15478000    2043.1687   -689.15425    303283.56    14.834462 
15478500    1940.9717   -694.49884    300386.06    14.829354 
15479000    1951.3295   -705.67308    295101.74    14.880057 
15479500    1829.1152   -678.67319    295048.38    14.816153 
15480000    2032.2201   -678.53685    299290.11    14.800638 
15480500    1931.1152   -750.61628    295338.54    15.210605 
15481000    1937.1485   -737.33891    303540.52    15.010038 
15481500    1878.7559   -719.57403    297894.26    15.025045 
15482000    2108.7839   -750.89696    305968.07    15.098913 
15482500    2027.0961   -753.06308    310002.16    15.093218 
15483000    1765.4409   -742.89862       299819    15.300113 
15483500    2095.6119    -749.6047    301402.73    15.293839 
15484000    1948.8774   -623.53267     280103.3    14.575368 
15484500    2019.5485   -613.18164    287443.53    14.573319 
15485000    1939.8251   -598.28473    313698.92    14.530719 
15485500    1971.4298   -609.28556    291623.46    14.566809 
15486000    1945.3002   -614.73862     297322.9    14.509701 
15486500    1899.1739   -623.48937    283908.55    14.573184 
15487000    2028.3307   -604.79483    327663.29    14.497066 
15487500    2051.9802   -603.57768    308888.39    14.525507 
15488000    2053.2034   -595.69462    297616.38    14.598801 
15488500    1876.7764   -609.97135    289645.81    14.701586 
15489000    1972.5701   -603.30865    283489.28    14.608205 
15489500    1961.4461   -608.12018    278079.26    14.576155 
15490000    1982.1289   -609.63777     304579.5    14.506339 
15490500    2067.7484   -730.16845    309041.66    15.046338 
15491000    2035.7504   -743.74463    293471.22    15.223464 
15491500    2012.7166    -689.1347    302505.78    14.872389 
15492000    2044.1789   -666.33309    304823.51    14.777253 
15492500    2030.9304   -693.90193    307409.97    14.808665 
15493000    1883.6492   -748.18396     299541.7    15.171279 
15493500    1850.5135   -797.16659    287368.94    15.538772 
15494000    1839.9863   -768.31922    285077.59    15.238068 
15494500    1892.0155   -651.12945    295003.67     14.55886 
15495000    2123.0597   -641.88093     293263.8    14.589132 
15495500    2072.5697   -610.98433    303736.47    14.520279 
15496000    1882.5857   -612.41886    288886.34    14.551573 
15496500    2151.2578   -605.80216    305495.45    14.522797 
15497000    1931.4079   -599.94298    332356.77    14.498126 
15497500    2012.5642   -605.70374    317868.69    14.506461 
15498000    2007.4116   -638.60667    299690.96    14.556956 
15498500    1955.7996   -763.77849    296832.65    15.392441 
15499000    1874.4915   -717.71046    296643.18    15.095261 
15499500    2027.1014   -729.12057    287872.54    15.131349 
15500000    1962.4965   -747.91204    298907.96     15.23688 
15500500    2049.0572   -749.12187    302010.98    15.317971 
15501000    1998.0893   -752.61108    303641.52     15.53778 
15501500    1950.9793   -769.13656    292214.14    15.904388 
15502000    1884.6619   -753.23838    302883.94    15.806076 
15502500    2046.3804   -759.33835    305926.93    15.759902 
15503000    1966.3139   -771.20726    276879.65    15.888969 
15503500    2045.0949   -746.06269    295482.42    15.454965 
15504000    1991.3781    -744.6892    305293.14    15.422041 
15504500    1961.0953   -757.60811    289060.96    15.451509 
15505000    1915.2316    -748.7952    298807.14    15.386109 
15505500    1920.7569   -723.57115    296580.89    15.173034 
15506000     1937.166   -757.31967    294135.55    15.502032 
15506500    2188.2313   -751.75466       305235    15.396999 
15507000    2070.8087    -736.6966    305857.45    15.536193 
15507500    1918.0531   -748.67532    285689.37    15.642317 
15508000    2045.6942   -761.05109    303311.86    15.535188 
15508500    2050.2381   -693.08589    308537.64     15.02357 
15509000    1941.3336   -730.79834    305800.83    15.257515 
15509500    1848.4274   -750.17812    300486.17    15.463145 
15510000     2133.274   -751.94691    298925.63    15.383389 
15510500    1868.5406   -751.22564    299022.71    15.436236 
15511000    2054.7177   -761.49327    302567.37    15.645543 
15511500     1824.105   -665.95138    292122.12    14.824517 
15512000    1976.4441   -672.26095    305606.29    14.786843 
15512500    2000.1284    -672.0444    295233.87    14.886806 
15513000    1949.6202   -658.65152     295035.8    14.891884 
15513500    2036.2514   -626.36785    313341.28    14.804282 
15514000    2085.8998   -644.91831    297537.73    14.982059 
15514500     2061.558   -648.33578    294722.54    14.964809 
15515000    2083.1636   -617.16788    305046.75    14.756587 
15515500    1927.0719   -620.38168    308191.46    14.862219 
15516000    1891.7229   -626.87051    301234.66     14.97477 
15516500    1967.5654   -715.36359    301078.49    15.650785 
15517000    2112.4339   -741.43491    302676.13    15.856812 
15517500    1921.7285   -684.77873    298154.06    15.489808 
15518000    1985.1537   -581.56985    317784.54    14.790115 
15518500    1952.9219    -727.4964    301693.02    15.786815 
15519000     2025.898   -728.86895    299388.97    15.805256 
15519500    1939.5599   -659.42594    299752.13    15.284677 
15520000    1813.0891   -689.54527    301274.14    15.401354 
15520500    2159.3563   -666.51851    302263.47    15.016778 
15521000    1935.8907   -648.88205    301368.36    14.860478 
15521500    2006.4481   -655.66677    299966.73    14.854957 
15522000    2043.7087   -659.51939    303324.88    14.791957 
15522500    2017.1703   -676.90725    308503.56    14.879615 
15523000    1859.7395   -669.84029    301869.75    14.959338 
15523500     1946.432   -660.24272    294115.62    15.024148 
15524000    2014.9164   -576.72813    297187.06    14.641537 
15524500    2226.0585   -702.55224     300335.1    15.345755 
15525000    1816.5191   -687.59133     293809.9    15.308429 
15525500    2070.5363   -683.49343    299334.36    15.245653 
15526000    1886.5719   -608.70033    298159.57    14.969284 
15526500    2184.7421   -720.78644    303135.95    15.814939 
15527000    2072.9573   -643.09591    304708.17    15.099158 
15527500    1957.5903   -628.78371    295613.88    14.919511 
15528000     1872.506   -611.83558    301604.48    14.866433 
15528500    1960.6452   -609.64479     307151.5    14.895943 
15529000    1792.6447   -764.76624     290594.4    15.905312 
15529500    1990.1246   -759.86441    300155.71    15.669643 
15530000    1894.2197   -759.41378    299773.89    15.812779 
15530500    2008.5369    -762.2794    300488.55    15.833931 
15531000    1958.0407   -758.08688       300999    15.654916 
15531500     2037.235    -651.4962    298193.01    14.851957 
15532000     2014.237   -649.46527     301116.9    15.111154 
15532500    2008.5247   -629.06647    303067.88    14.917503 
15533000    1943.5875   -636.29629    294810.27    15.030825 
15533500     1954.976   -640.00029    296921.66    15.038276 
15534000     1949.079   -733.64568    298093.84    15.676209 
15534500    2173.8565   -704.64634    298341.23    15.349182 
15535000    2074.7791   -694.31237    304585.16    15.244606 
15535500     2043.358   -674.26554    304193.86    15.210289 
15536000    1846.9153   -734.14306    298298.55    15.680464 
15536500    1990.3392   -647.82442    289386.67    15.005617 
15537000     1944.275   -635.46847     300874.4    14.948523 
15537500    2005.9835   -645.06309    290343.82    14.944103 
15538000    1939.1881   -617.00154    306936.25    14.844955 
15538500    1976.2545    -725.4731    296053.64    15.645721 
15539000    1986.3231   -685.84672    309523.89     15.22101 
15539500    1979.8793   -689.01198    308619.11    15.213058 
15540000     1886.788   -672.82607     300722.5    15.250918 
15540500    2077.4599   -679.31524    298554.31    15.393943 
15541000    2000.4121    -632.0845    299542.13    15.072993 
15541500    2075.4889   -717.73353    298776.51    15.694686 
15542000    2061.0021   -763.81435    296730.17    15.947648 
15542500    2133.3181   -709.93372    303434.81    15.538115 
15543000    1912.4904   -614.12651    306120.23    14.966003 
15543500    1987.5194   -735.60612    298208.86    15.747836 
15544000    1982.7504   -672.08351     297531.9    15.297793 
15544500    2124.2202   -638.92716    300977.09    15.113322 
15545000    2050.8687   -664.33214    303506.74    15.198841 
15545500    1866.3626   -731.98217    296143.58    15.873557 
15546000    2156.3542   -729.33204    302160.26    15.664204 
15546500    2032.5577   -682.00044    306613.37    15.361691 
15547000    1927.5921   -667.65045    303292.94    15.291719 
15547500    1991.9602   -686.25528     300494.2    15.538571 
15548000    2284.2363   -694.49521    302396.43    15.584795 
15548500    2036.8108   -672.56028    305226.67    15.406433 
15549000    2020.5133    -699.1983    300701.17    15.649484 
15549500    2007.5238   -722.04575    304979.77    15.757332 
15550000    2149.2191   -697.70045    302977.17    15.494313 
15550500    1964.7045   -593.32834    307719.27    14.959123 
15551000    1958.9632    -617.8679    297681.23    14.965809 
15551500    1994.6364   -623.58674    299268.93    14.913844 
15552000    1968.3482   -673.81612    296571.73    15.356268 
15552500    1886.5469    -733.1004    299450.81    15.898917 
15553000    1965.0089   -705.91563     295889.5    15.592219 
15553500    2014.4691   -695.12672    296148.75    15.423523 
15554000    1958.5636    -657.2841    303300.46    15.179249 
15554500    1925.1039   -629.25402    297140.66    15.007629 
15555000    2165.6341   -698.69854     299247.9    15.583397 
15555500    1945.4022   -699.23847    296572.19    15.563199 
15556000    2023.4579   -672.07463    304409.18    15.401413 
15556500    2062.9303   -673.70687    302961.99    15.449028 
15557000    2121.4911   -655.98098    303896.45     15.04518 
15557500     1957.885    -551.3749     288153.6    14.599177 
15558000    2169.7247   -572.27212     297362.4    14.555646 
15558500    1914.6288   -553.82986    320522.33     14.55919 
15559000    1947.2863   -555.92413    326055.42    14.537244 
15559500    2103.3357   -568.65588    308347.82    14.539567 
15560000    2102.0717   -660.21395    292788.88     14.96416 
15560500    2207.2135   -687.70023    302886.92    15.404919 
15561000    1888.1685   -693.50599    297611.09    15.474546 
15561500    1930.6278   -620.24474    294014.11    15.056918 
15562000    1983.3523   -641.01862    303070.25    15.038817 
15562500    1971.2879   -641.54126    291853.68    15.057866 
15563000    1899.9848   -660.03378    295022.87    15.264053 
15563500    1815.6476   -678.06992     297856.2    15.431703 
15564000    2112.9701   -655.95015    296817.66      15.1531 
15564500    2094.0391   -665.30816     300548.6    15.149874 
15565000    1852.8551   -683.76504    294503.92    15.386178 
15565500    1994.8157   -671.33944    304925.25    15.419472 
15566000    1910.8283    -688.1302    297940.56    15.431425 
15566500    2031.9429   -663.35761    300079.01    15.316273 
15567000    1954.1146   -666.34326    297737.93    15.233491 
15567500    1831.0518   -624.16828    295378.57    14.969932 
15568000    2026.3931   -648.86155    304786.71    15.204236 
15568500    2116.3828   -746.23351     298696.1    15.957166 
15569000    1935.5178   -717.76675    299814.94    15.712384 
15569500     1890.075   -757.68399    300529.62    15.960355 
15570000     2069.347   -739.93029     302579.2    15.890405 
15570500    2230.2823   -658.72358    303369.29     15.13116 
15571000      2085.67   -655.39204    305704.86    15.212784 
15571500     1771.109   -736.50933    294404.08     15.83952 
15572000    2034.3895   -734.98768    301720.05    15.882872 
15572500    1667.0114    -704.8718    298399.81    15.665361 
15573000    1943.9427   -617.23013    294285.36     15.08949 
15573500    2069.4405   -639.38772    299635.51    15.084613 
15574000    1882.0387   -706.36164    298383.19    15.762903 
15574500    1956.2469   -715.43014    298792.74    15.817778 
15575000    1980.8501   -682.10218     301167.5    15.491491 
15575500    1928.4195   -655.50452    301836.69    15.224589 
15576000    2081.1445   -693.26692    301973.94    15.430213 
15576500    1945.9654   -608.51334    299243.14    15.013877 
15577000    1965.5995   -599.82657    302750.37    14.971423 
15577500    1987.1204    -613.2675    304874.98    14.997633 
15578000    1945.0877   -703.85182    303380.33    15.736142 
15578500    1891.2849   -682.14244    299644.11    15.466638 
15579000    2129.6298   -685.72759    300464.22    15.476932 
15579500    1942.8114   -723.88421    291800.18    15.870989 
15580000    1896.3573   -670.63935    296629.22    15.384531 
15580500    2075.4196   -717.53809    288814.35    15.964773 
15581000    1887.0589   -666.79355    296294.23    15.417834 
15581500    2039.8058   -615.90653    296634.72    15.037341 
15582000    1846.5367   -599.49032    295709.66    14.916349 
15582500    1958.0394   -608.01258     298612.1     14.96154 
15583000    2086.7389   -636.93996    296844.04    15.145858 
15583500    1986.5476   -728.39126    305829.62     15.75802 
15584000    2078.2139   -691.01533    300319.11    15.419807 
15584500    1987.3714   -672.33994    299834.55    15.336276 
15585000     1983.778   -663.12005    298174.88    15.338467 
15585500    1966.5213   -700.09452    299659.28    15.624463 
15586000     1802.163   -701.31859    300701.34    15.612001 
15586500    1978.9508   -623.97803    300275.27    15.048115 
15587000     2248.358   -646.42314    308172.39    15.106276 
15587500    1919.7976   -711.18883    294665.09    15.857426 
15588000    2035.5317   -716.79429    298354.93    15.899894 
15588500    1997.6624   -710.79657    302008.46    15.817084 
15589000    1918.3351   -749.55632    303038.47    16.011126 
15589500    2042.0722   -737.31035    302095.31    15.759452 
15590000    2112.3645   -720.65733    301787.02    15.599841 
15590500    2014.0531   -549.61959    350408.74    14.528324 
15591000    1867.0028   -557.65948    309917.92    14.566693 
15591500    2151.2831   -571.54889    290093.55     14.66952 
15592000    1833.1771   -683.02838    297494.81    15.424606 
15592500    1966.3938   -606.07184    311101.32    14.836034 
15593000    1934.3637   -635.12659    298222.56    15.067107 
15593500    2030.6437   -647.38233    300606.09    15.063242 
15594000    1945.7806   -653.36164    302349.55    14.992171 
15594500    1992.8714   -633.39767    298551.56    14.947634 
15595000    1938.5688   -621.23494    302708.83    14.955477 
15595500    2001.9414   -714.84255     302169.6    15.662704 
15596000    1844.5735   -688.78038    298339.29    15.493984 
15596500    1914.8101   -678.75686    302380.09    15.370362 
15597000    2166.3282   -745.72189    292955.27     16.01064 
15597500    2018.2114   -684.98234    302012.34    15.442695 
15598000    1732.7817   -669.84241    295207.78    15.410153 
15598500    2069.6625   -644.59941    303659.24    15.110622 
15599000    1979.6341   -654.55918    299265.65    15.195148 
15599500    2031.0892   -701.41089    302512.97    15.469805 
15600000    2161.5323   -708.52514    300473.02     15.70635 
15600500    2160.7025   -607.16327    303813.54    14.950792 
15601000    1954.3928    -691.4132    298877.28    15.519223 
15601500    2192.9229   -653.46111    300560.96    15.300578 
15602000    1870.8526   -708.91257    303313.21    15.797568 
15602500    2072.4241    -681.4886     301306.4    15.382456 
15603000    2120.0868   -604.18956    304320.77     14.74631 
15603500    1984.7069   -619.51996     299132.1     14.92632 
15604000    1811.5936   -679.46657    297984.26    15.375856 
15604500    1893.2238   -721.00813    298412.08    15.665175 
15605000    1997.1479   -673.75404    303511.18    15.386347 
15605500    1892.8557   -669.02582    298511.94    15.289352 
15606000    2059.1744   -666.92087    303352.55    15.337227 
15606500    2186.4532   -683.44756    299834.28    15.379549 
15607000     2056.419   -680.40238    302806.34    15.503679 
15607500    2155.4949    -684.0785    297833.78    15.445231 
15608000    1870.1106    -692.6601    301491.37    15.451095 
15608500    1915.5042   -669.08997    298852.63    15.245157 
15609000    2060.4798   -671.43132    301800.14    15.316329 
15609500    1792.9417   -669.86139    300567.51    15.271614 
15610000    2122.7009   -636.52627    296677.24     15.04685 
15610500    2124.1234   -635.27912    301283.26    15.015026 
15611000    2080.3643   -704.92334     296579.6    15.419591 
15611500    2060.5359     -712.608    297290.12    15.549407 
15612000    1908.7929   -681.92202    298143.19    15.398416 
15612500    1898.6013   -692.78661    295467.42    15.471749 
15613000    1926.3832    -645.4491    295909.48    15.096332 
15613500    1955.7682   -744.02906    297244.53    15.686199 
15614000     2042.989    -767.0109    299613.91    15.785108 
15614500    1897.1046    -748.5462    300571.43    15.827247 
15615000    2065.2067   -741.86276    296649.11    15.656721 
15615500    1985.2191   -764.99712    293949.36    15.815871 
15616000    2086.8495    -751.0486    292336.41     15.87965 
15616500    1923.6858   -748.35601    303416.77    15.742215 
15617000    1889.0482    -750.0972    299938.47    15.795101 
15617500    1944.1862   -716.88302    303077.17    15.603286 
15618000    2048.2101   -651.52406    294494.99    14.973298 
15618500    1958.8665   -657.07286    294863.84    14.989659 
[...]
29848000    1980.9468   -646.95736    297839.63    14.627863 
29848500     1962.003   -618.46546    300550.13      14.5177 
29849000    1910.4058   -633.93749    303689.22    14.645094 
29849500    2091.4454   -704.73482    300822.97    15.115441 
29850000    1957.9843   -715.77376    299756.75    15.157639 
29850500    1897.6193   -671.31927    298674.76    14.855123 
29851000    1882.1811   -718.61126    302572.52     15.11676 
29851500    1808.6546   -681.50074    299173.94    14.802713 
29852000    2074.5336   -770.33751    295377.83    15.283082 
29852500    1969.5344   -750.97025    303054.88    15.159817 
29853000    1971.5814   -772.40125    295511.65    15.326495 
29853500    1996.4267   -693.91131    297036.75    14.855688 
29854000    2082.9346   -703.28195    296130.29    14.855796 
29854500    1894.8722    -685.9571    308467.26    14.777304 
29855000    2093.4576   -692.72792    310074.14     14.77606 
29855500    2058.0817    -709.0617    291924.67    14.939965 
29856000    2071.9624   -701.52708    291662.65    14.902439 
29856500    1929.6787   -714.20736    290365.46     14.85103 
29857000    1993.7899   -722.47896    296629.72     14.87367 
29857500    1840.6664   -761.19983    290654.38     15.21712 
29858000    2054.0007    -766.2871    292105.69     15.21053 
29858500    1915.2269   -748.82846    303006.92    15.131701 
29859000    2160.4085   -716.32722    308256.59    15.042181 
29859500    1905.7189   -669.90458    300408.99    14.790715 
29860000    2024.2643   -699.74116    299593.54     14.95681 
29860500    2065.6291   -697.73901    289031.97    14.879416 
29861000    1780.3746   -660.59975    311237.97    14.773556 
29861500    2007.2644   -680.73215    299970.24    14.807047 
29862000    1959.0776   -730.26103    294911.29    15.149659 
29862500    2088.1592   -741.82489    304836.17    15.128656 
29863000    1928.1618   -653.15439    294034.07    14.650212 
29863500    1973.0016   -673.60863    293115.06     14.83691 
29864000    1931.6715   -730.31684    304676.45    15.145664 
29864500    1906.7493   -748.07551    303174.79    15.136966 
29865000    1913.6417   -748.76045    296104.39    15.237886 
29865500    2149.4515   -753.66874    298704.39    15.216808 
29866000    2034.6198    -743.0088    299319.67    15.187112 
29866500    2204.4451    -805.1511    301392.45    15.851286 
29867000     1809.061   -798.18872    280371.49    15.828195 
29867500    1985.8953   -789.60054     308258.7    15.733804 
29868000    2081.9479   -772.71413     302618.1    15.626587 
29868500    2050.6214   -760.99235    301425.63    15.515664 
29869000    1907.7454   -746.04902    304361.59    15.396577 
29869500    2104.7113   -762.24187    293700.59    15.601906 
29870000    2013.1883   -713.84737    294197.37    15.070064 
29870500    1927.6635   -780.43568    295411.27    15.538628 
29871000    2043.7971   -797.41876    300811.16    15.728967 
29871500    2088.0626   -727.35317    301922.27    15.109159 
29872000    1926.3667   -678.56498    300320.11    14.878279 
29872500    2022.6716   -684.26074    297925.54    14.841982 
29873000    2025.2122   -722.22575    292167.85    15.143515 
29873500    1915.8041   -709.19373    300431.03    15.073935 
29874000    2086.4628   -739.08095    298790.66    15.158079 
29874500    1941.6231   -634.00025    295544.01    14.574173 
29875000    1933.5765   -722.49345    294517.34    15.154238 
29875500    1997.8759   -723.48647     298051.4    15.181299 
29876000    2019.7968   -706.68167    310087.15    14.966259 
29876500    2166.3288   -646.15053    324242.89    14.674232 
29877000    1805.1735   -744.53241    298829.78    15.194831 
29877500    1997.4091   -760.30201    296591.37    15.153837 
29878000    1945.0876   -758.98222    296312.22    15.190145 
29878500    1915.5961   -765.34771    292358.35    15.189721 
29879000    1972.5004   -724.36156    293107.41    14.887119 
29879500    2036.2169   -765.64711     302939.7    15.447651 
29880000    1933.7925   -717.52859    297005.49    15.008034 
29880500     1851.084   -788.35108    297945.46    15.671636 
29881000    2012.1409   -759.01482    303277.49    15.469584 
29881500    2060.0213   -703.48971    302315.73     15.14208 
29882000    2091.3641   -685.51849    295403.17    14.911321 
29882500    1990.7621   -734.92329    296988.22    15.317147 
29883000    2133.7067    -752.7557    300137.06    15.348355 
29883500    1993.9124   -752.96811    304918.89    15.479055 
29884000    2175.9436   -751.04398    300460.11    15.352109 
29884500    1994.7266   -720.04423    296174.36    14.966943 
29885000    2112.4698   -673.11362    305146.49    14.819736 
29885500    2037.0399    -662.1115    304386.84    14.793071 
29886000    2068.3974   -715.54609    299994.11    15.111976 
29886500    2070.2162   -713.07796    299236.79    15.186608 
29887000    1898.8646   -781.38784    300577.25    15.849423 
29887500    2039.3382   -785.40984    302363.51    15.824004 
29888000     1856.302   -791.61828    299765.58    15.818624 
29888500    2091.7875   -783.43029    301682.45     15.69983 
29889000    2006.9479    -646.6641    305726.53    14.688085 
29889500    1930.4661   -653.82292    305151.97    14.740739 
29890000    2117.5857   -695.98742    302426.99    14.898917 
29890500    2042.1212   -697.39384    291390.55     14.89187 
29891000    2040.3749   -706.35036    293697.97    14.848773 
29891500    1865.1074   -691.00704    299536.24    14.819033 
29892000    1874.9425   -689.61348     291836.9    14.855594 
29892500    1936.2857   -676.47706    300530.84    14.814382 
29893000    1973.9518   -662.20595    303133.63    14.731653 
29893500     2075.662   -694.86578    299443.25    14.965699 
29894000    2097.4981     -753.975    305018.99    15.474893 
29894500    2246.0357   -756.01612       303846    15.444686 
29895000    1924.7213    -745.8102    302409.09    15.374534 
29895500    2091.8993    -753.8773    304608.03     15.53147 
29896000    1989.9218   -767.26387    304463.94    15.734238 
29896500     2015.529   -772.44491    286426.43    15.706698 
29897000    2107.0398   -748.84273    305244.72     15.50553 
29897500    1964.6474   -763.97226    299909.67    15.781511 
29898000    1851.4252   -758.75114    295477.43    15.858776 
29898500     1925.089   -754.42919    301359.81    15.695547 
29899000    1851.7557    -775.1678    308921.96    15.697515 
29899500    2043.4286   -715.76251     307166.4        15.03 
29900000    2204.9875   -780.52147    306049.51    15.624108 
29900500     1923.995   -739.31013    300246.73     15.38865 
29901000    2261.1109    -757.9725    300258.83    15.546094 
29901500    2040.2712    -745.2765    305633.56    15.511741 
29902000    1962.9128   -755.71062     298905.2     15.39586 
29902500    1973.1533   -753.80495    297423.07    15.374786 
29903000    2109.7296   -678.19096    298272.03    14.872008 
29903500    2029.8137   -678.97184    288293.23     14.88828 
29904000    2030.1057   -756.05749     298564.5    15.327148 
29904500    1942.5563   -749.23447    303169.43     15.40022 
29905000    1938.3034   -743.86073    310858.21    15.349998 
29905500    2019.4609   -757.29912    288915.67    15.450426 
29906000     1783.038   -747.60604    296544.75     15.43381 
29906500    2023.6933   -743.53256    306069.93    15.418008 
29907000    2082.6438   -729.19041    315043.06    15.243359 
29907500    2000.4753   -753.19667    296947.46    15.470965 
29908000    1883.8646   -753.67167    295541.97    15.471246 
29908500    2046.3187   -748.52919    305554.26    15.370214 
29909000    1875.6971   -742.89227    302154.72    15.472703 
29909500    2006.3749   -752.08581    302614.32    15.590549 
29910000    1783.1327   -751.04398    298142.39    15.549185 
29910500    2191.8117   -677.06309     297336.5    14.818915 
29911000    1844.7153   -667.23607     299506.4     14.87272 
29911500    2179.2988   -662.98418    307940.49    14.797192 
29912000    2076.8468    -680.2046    295398.42    14.845446 
29912500    1921.2793   -693.39252    297488.68    14.939765 
29913000    1867.2925   -763.36658    292476.84    15.259558 
29913500    1845.3563    -765.7295    292747.92    15.263939 
29914000    2037.9699    -733.0956    300358.74    15.149061 
29914500    2091.6223   -787.68418    289297.43    15.867804 
29915000    1901.8285   -773.23743    307872.77    15.799809 
29915500     1915.032   -745.38658    305080.21    15.483472 
29916000    1994.2281   -727.45198    295940.54    15.330391 
29916500    2212.0362   -635.64326    309770.39    14.552773 
29917000    1932.9463   -591.73173    350896.21     14.50195 
29917500    1976.2102    -631.0873    287383.66    14.579458 
29918000    1941.0028   -636.97625    303189.02    14.552977 
29918500    2080.2241   -645.96683    303351.67    14.542657 
29919000    2140.6846   -645.35633    310961.54    14.538939 
29919500    1887.1573   -635.98389    308660.34    14.528267 
29920000    1935.0174   -784.08968    298793.21     15.59912 
29920500    2012.8436   -791.15724    302078.63    15.745948 
29921000    1859.7064   -797.48162    303665.87    15.785046 
29921500    1892.6768   -789.20242    301607.04    15.737772 
29922000    2013.4098   -694.12109    297570.92    14.852709 
29922500    2177.5283   -670.08972    302188.45     14.80897 
29923000    2062.3769   -691.09242    298601.05    14.873482 
29923500    1861.3001   -666.75716    302137.96    14.806355 
29924000    2105.3619   -718.55465    298928.85    14.921991 
29924500    1974.1327   -685.23198    306743.48    14.762442 
29925000    1997.5211   -702.73483    306833.64    14.994217 
29925500    2035.0228   -751.84855    300467.33    15.500265 
29926000    1923.6874   -784.11431    301639.45    15.578686 
29926500    1837.5629   -750.98078    298557.76    15.426063 
29927000    1741.5086   -776.05585    298302.84    15.605716 
29927500    2058.5236   -772.04999    300587.78    15.559562 
29928000    1971.0843   -764.31533    300403.39     15.50866 
29928500    1996.5765   -683.18698    304564.06    15.096346 
29929000    1883.2577   -693.05194    307735.02    15.135444 
29929500    2066.9223   -758.66672    300146.71    15.601712 
29930000    1956.5052   -743.21786    301100.35    15.398708 
29930500    1811.2313   -775.51432    291646.21     15.84375 
29931000    2058.6036   -754.38099    306934.16    15.626498 
29931500    1992.8416   -759.30127    302768.77    15.770104 
29932000    1837.4342   -742.00787    298033.56    15.826156 
29932500    2135.4471   -746.31644    305117.35    15.726614 
29933000    1972.4278   -748.03462     292902.6     15.49477 
29933500    2091.9045   -760.14836    301483.04    15.729278 
29934000    1916.4658   -763.11458    298849.03    15.817403 
29934500     1937.918   -751.39995    282123.73    15.707445 
29935000    1952.3424   -618.37104    314579.97    14.875842 
29935500    2015.8025   -718.17097    298425.31    15.596502 
29936000     2096.777   -667.54954    304053.67    15.277915 
29936500    1996.7545   -691.70308    294416.67    15.408754 
29937000    1895.0928    -695.7297    296737.46    15.396399 
29937500    2063.2653   -710.77153    297431.69    15.502279 
29938000    2041.9385    -749.8518    305293.86    15.704151 
29938500    1962.1923   -741.05387    291150.74    15.688463 
29939000     1888.029    -754.4041    297250.12    15.803981 
29939500    1936.0502   -693.56811    302137.76    15.307911 
29940000    1987.7479   -727.55224    296687.14     15.62951 
29940500    2053.6693   -768.65866    291157.77      15.9091 
29941000    2044.8925   -761.44026    307391.76    15.807594 
29941500    2003.2226    -716.4837    301475.86    15.463955 
29942000    2051.7831   -692.97575    306699.61    15.197618 
29942500      2024.69   -683.29698    300019.23    15.284828 
29943000     1910.029   -660.75525     299236.4    15.217421 
29943500    1992.3444   -627.44458    299420.66    14.963815 
29944000     1860.358   -640.97744    297724.29    14.988445 
29944500    2131.5249   -650.82851    293539.01    14.973456 
29945000    2176.7348   -638.09012    303406.77     14.85236 
29945500    2142.0422   -610.35889     305088.9    14.774817 
29946000    2158.9533   -707.57114    297630.84    15.473429 
29946500     2047.078   -683.87722    300652.97     15.41761 
29947000    1955.5813   -659.87687    295718.53    15.234637 
29947500    2116.8695   -641.67008     299819.1    14.994566 
29948000    2081.0428   -672.29395    296933.08    15.223487 
29948500    1953.4061   -695.48818    302696.17    15.416829 
29949000    1873.6637   -694.93214    300741.78    15.443778 
29949500    2044.3492   -689.23491    300518.02    15.445503 
29950000    2215.0074   -695.02688    300985.13    15.509443 
29950500    1825.2046   -606.20158    314975.39    14.855094 
29951000     1997.986   -695.56226    298280.14    15.476252 
29951500    2001.3917   -684.11354    300464.97    15.355313 
29952000     1962.079   -693.75086    297544.28    15.381972 
29952500    2171.4898   -609.04221    304845.85    14.754214 
29953000    2169.5102    -723.1084    297892.55    15.667181 
29953500    2433.6073   -664.31582    304394.81    15.275902 
29954000    2010.1841   -680.02094     300118.9     15.48444 
29954500    2097.3089   -688.55341    294609.26    15.398444 
29955000     2085.469   -607.56433    299897.08    14.968457 
29955500    2177.9649   -587.60859    312380.95    14.944898 
29956000    1949.3473   -608.40392    301143.77    14.990878 
29956500    1965.8209   -716.94555    296757.53    15.846894 
29957000    1981.6616   -711.52563    301805.65    15.689984 
29957500    2111.6446   -753.82115    297878.99    15.894724 
29958000    2034.7166   -639.37076    297784.37    15.017305 
29958500    1906.8914   -621.93141    301864.25    14.914104 
29959000    1890.9174   -613.45424    313681.68    14.880451 
29959500    1915.1505   -681.54916    301868.99    15.248664 
29960000    2144.9046   -747.78407     307457.9    15.423691 
29960500    1897.6783   -731.17229       302829    15.358864 
29961000    1966.2133   -692.70183    296269.82    14.976774 
29961500    1997.3821   -708.45588    296969.06     14.98725 
29962000    2118.2317   -725.81675    300249.25    15.076576 
29962500    1836.4102   -682.71913    293938.57    14.825069 
29963000    1972.7394   -692.63009    305646.18    14.796108 
29963500    2004.3556   -720.20911    291405.97    14.877209 
29964000    1921.4591   -666.28418    305985.82    14.713068 
29964500    1900.1199   -712.38292    296998.92    14.866262 
29965000    1978.4463   -701.73309    299913.91    14.808845 
29965500     2041.355    -680.2855    303087.53    14.764087 
29966000    2125.4435   -738.78157    298727.69    15.242984 
29966500    2031.1298   -703.64601    303746.14    15.012078 
29967000    1817.2935   -768.87467    298579.73    15.507536 
29967500    2029.4471   -782.30445    298679.26    15.577822 
29968000    1969.3926   -755.32181    301943.92    15.543082 
29968500    2067.6084   -747.27452    309792.22    15.474339 
29969000    2156.6906   -752.19773    305711.99    15.450528 
29969500    1952.4319   -759.31805    301069.48    15.498538 
29970000    1880.6001   -749.32296    303220.98    15.521645 
29970500    1849.0098   -754.06879     299057.9    15.514973 
29971000    2241.0174   -807.55929    308905.02    15.860211 
29971500    2050.2251    -760.2962    302582.91    15.520682 
29972000    2039.6542   -781.02343    309936.66    15.666193 
29972500    1988.7345   -713.67329    302749.36    15.090472 
29973000    2027.6007    -678.9464    304256.49    14.854113 
29973500    2021.2424   -680.52911    306504.83    14.763975 
29974000     1780.745   -682.50651    300427.41    14.864306 
29974500     1844.676    -687.7426    302557.29    14.817836 
29975000    2028.5792   -705.85717    296973.94    14.922545 
29975500     2174.508   -713.97555    304959.38    15.034554 
29976000    2126.3373    -759.5965    289479.71    15.495761 
29976500    1936.2257   -745.17903    305358.84     15.34675 
29977000    2234.6179   -704.35003     306683.2    14.981184 
29977500    1887.4422   -706.57849    294856.18     14.94901 
29978000     2138.901   -697.80283    299799.96    14.946594 
29978500    1763.6166   -730.23923    300777.77    15.123169 
29979000    1929.8488    -789.8127    276269.53    15.798755 
29979500    1996.8019   -724.64312    296997.32    15.134851 
29980000      2051.21   -757.15658       302048     15.32716 
29980500    1966.8129   -785.48622    305130.88    15.774038 
29981000    2154.2981   -774.76129    305661.52    15.609801 
29981500    2000.6102   -793.93372    297215.85    15.802033 
29982000    2053.5903    -778.6489    289087.72     15.67254 
29982500    1923.9755   -758.26944    287349.16    15.609855 
29983000    1963.4803   -741.51637    304142.47    15.448979 
29983500     1909.223   -748.86668    304974.13    15.483787 
29984000    2065.3898   -749.00258    303509.03    15.589877 
29984500    2138.3814   -748.17925    303823.97    15.650217 
29985000     1928.404   -765.45799    297103.58    15.853621 
29985500    1855.1721   -762.08817    307099.68    15.820982 
29986000    2046.0059   -753.16475     303961.2    15.814177 
29986500    2102.6456   -765.16395    300291.24    15.896768 
29987000    1994.2395   -767.61323    302175.94    15.858191 
29987500    2139.1361   -756.02033    306500.05    15.772303 
29988000    1897.6663    -691.8341    297258.06    15.359925 
29988500     1884.911    -659.2042    296884.61    15.196396 
29989000    2038.8405   -687.79985    298759.93    15.350512 
29989500    2147.1931   -691.88316    300881.63    15.406136 
29990000    1989.0696   -695.54973    302798.73    15.476558 
29990500    2003.8664   -666.27261    300058.99    15.279708 
29991000     1914.653   -707.00034    298105.75    15.678433 
29991500    1920.9367   -716.74394    299553.37    15.786724 
29992000    1867.1446   -719.23478     300993.8    15.754026 
29992500    2020.6254     -741.488    304143.48    15.981968 
29993000    2157.3951   -695.24567    300659.68    15.517362 
29993500    2060.1773   -637.80994    305722.33    15.074828 
29994000    1991.9058   -699.08737    301233.83    15.592616 
29994500     1854.891   -720.86371    299555.78    15.830524 
29995000    2015.3286   -731.67922    300955.25    15.745143 
29995500    2130.3013   -754.24341    298064.51    15.930971 
29996000    2040.6547   -757.46861     301966.4     15.89528 
29996500    1890.8195   -689.83573    298334.31    15.339113 
29997000     1905.066   -560.48368     288423.6    14.585978 
29997500     2350.744    -565.8163    314420.02    14.548338 
29998000    1998.5664   -620.14504    293364.34    14.668918 
29998500    1869.8246   -658.68733    303446.11    14.865761 
29999000    1938.9774   -736.67613    296028.61    15.510082 
29999500    2058.5675   -763.89923    302312.57    15.734732 
30000000    2075.6093     -739.629    296986.45     15.56833 
Loop time of 60721.9 on 6 procs for 15000500 steps with 256 atoms

Performance: 42.688 ns/day, 0.562 hours/ns, 247.036 timesteps/s
99.3% CPU use with 6 MPI tasks x no OpenMP threads

MPI task timing breakdown:
Section |  min time  |  avg time  |  max time  |%varavg| %total
---------------------------------------------------------------
Pair    | 3904       | 4043.5     | 4180.4     | 148.7 |  6.66
Neigh   | 108.95     | 110.09     | 111.46     |   7.4 |  0.18
Comm    | 888.85     | 1030.1     | 1179.3     | 311.0 |  1.70
Output  | 602        | 602.02     | 602.11     |   0.2 |  0.99
Modify  | 54874      | 54883      | 54894      |   2.7 | 90.38
Other   |            | 53.59      |            |       |  0.09

Nlocal:    42.6667 ave 46 max 39 min
Histogram: 1 1 0 0 1 0 0 1 1 1
Nghost:    1105.5 ave 1119 max 1085 min
Histogram: 1 0 1 0 0 0 0 2 1 1
Neighs:    3413.33 ave 3772 max 3149 min
Histogram: 2 0 1 0 0 1 1 0 0 1

Total # of neighbors = 20480
Ave neighs/atom = 80
Neighbor list builds = 747203
Dangerous builds = 0

write_data	data.final
Total wall time: 16:52:08
