LAMMPS (8 Feb 2019)
Processor partition = 0
echo both

include         in.partitions
variable p_id world   0 1 2 3 4 5
include		in.temp
variable	temperature equal 2000.
variable	tempDamp equal 0.1 # approx 0.1 ps
include		in.pressure
variable	pressure equal 300000.
variable	pressureDamp equal 1.0
include 	in.seed
variable	seed world 74581 93734 128321 21934 495716 871038
units		metal
read_restart    Restart.lmp.${p_id}
read_restart    Restart.lmp.0
  restoring atom style atomic from restart
  orthogonal box = (0.165422 0.165422 0.165422) to (16.0186 16.0186 16.0186)
  2 by 1 by 3 MPI processor grid
  pair style eam/alloy stores no restart info
  256 atoms
include 	in.setup
variable	out_freq equal 500
variable	out_freq2 equal 500

neigh_modify    delay 10 every 1
include		in.al
### Argon Potential Parameters ###
pair_style 	eam/alloy
pair_coeff 	* * Al99.eam.alloy Al

timestep	0.002 # According to Frenkel and Smit is 0.001

thermo          ${out_freq}
thermo          500
thermo_style 	custom step temp pe press lx


restart 	${out_freq} Restart.lmp.${p_id} Restart2.lmp.${p_id}
restart 	500 Restart.lmp.${p_id} Restart2.lmp.${p_id}
restart 	500 Restart.lmp.0 Restart2.lmp.${p_id}
restart 	500 Restart.lmp.0 Restart2.lmp.0



timer 		timeout 23:50:00 every 1000
New timer settings: style=normal  mode=nosync  timeout=23:50:00

# NPT

include		in.dump
dump            myDump all atom ${out_freq2} dump.al.${p_id}
dump            myDump all atom 500 dump.al.${p_id}
dump            myDump all atom 500 dump.al.0
dump            myDcdDump all dcd ${out_freq2} out.${p_id}.dcd
dump            myDcdDump all dcd 500 out.${p_id}.dcd
dump            myDcdDump all dcd 500 out.0.dcd
dump_modify	myDump append yes
dump_modify     myDcdDump append yes



fix             1 all plumed plumedfile plumed.dat outfile plumed.out
fix             2 all nph iso ${pressure} ${pressure} ${pressureDamp}
fix             2 all nph iso 300000 ${pressure} ${pressureDamp}
fix             2 all nph iso 300000 300000 ${pressureDamp}
fix             2 all nph iso 300000 300000 1
Resetting global fix info from restart file:
  fix style: nph, fix ID: 2
fix             3 all temp/csvr ${temperature} ${temperature} ${tempDamp} ${seed}
fix             3 all temp/csvr 2000 ${temperature} ${tempDamp} ${seed}
fix             3 all temp/csvr 2000 2000 ${tempDamp} ${seed}
fix             3 all temp/csvr 2000 2000 0.1 ${seed}
fix             3 all temp/csvr 2000 2000 0.1 74581
fix             4 all momentum 10000 linear 1 1 1 angular

run             30000000 upto # 60 ns
All restart file global fix info was re-assigned
Neighbor list info ...
  update every 1 steps, delay 10 steps, check yes
  max neighbors/atom: 2000, page size: 100000
  master list distance cutoff = 8.28721
  ghost atom cutoff = 8.28721
  binsize = 4.1436, bins = 4 4 4
  1 neighbor lists, perpetual/occasional/extra = 1 0 0
  (1) pair eam/alloy, perpetual
      attributes: half, newton on
      pair build: half/bin/atomonly/newton
      stencil: half/bin/3d/newton
      bin: standard
Per MPI rank memory allocation (min/avg/max) = 4.003 | 4.193 | 4.382 Mbytes
Step Temp PotEng Press Lx 
14999500    2099.7805   -796.40168    298562.58    15.853156 
15000000    2003.2326   -793.71192    299166.34    15.715572 
15000500    1948.5307   -678.91858    295732.09    14.891124 
15001000    1989.7138   -695.13323    300263.82    14.813626 
15001500    1810.6958   -682.34516    298114.19    14.784251 
15002000    2089.0498   -690.41053    302999.81    14.867819 
15002500     1990.457   -702.81239    297369.84    14.946389 
15003000    1891.7843   -687.31402    294605.45    14.882125 
15003500    2040.8626    -754.3473    299415.07    15.341117 
15004000     2026.778   -778.14412     303985.5    15.491757 
15004500    1882.9081    -784.9273    301656.13    15.547259 
15005000    2212.7269   -784.09211    302677.38    15.688375 
15005500     1892.861   -736.95799     308153.5    15.167307 
15006000    2085.5559   -761.00195    301859.58    15.499303 
15006500    1855.2076   -763.81194    300623.25    15.465335 
15007000    2094.8018   -756.42481    305642.24    15.490556 
15007500    1966.2832   -761.19061    300114.83    15.560596 
15008000    2295.2225   -786.77675    301527.99    15.628732 
15008500    1876.0496   -790.65804    289911.34    15.836935 
15009000    1881.6518   -780.45809    309078.49    15.867061 
15009500    1941.0421   -757.54796     292074.3    15.495853 
15010000     1863.875   -766.19126    299000.92    15.500518 
15010500    2086.9054   -687.39867    298001.72    14.915486 
15011000    1943.7239   -728.03305       299778    15.149889 
15011500    1958.1804    -731.6378    302101.57    15.149108 
15012000    2066.6498   -792.58089    308390.31    15.753272 
15012500    1961.9222   -757.22873    301884.11    15.512744 
15013000    2145.2697   -737.48248    305916.25    15.407423 
15013500    1959.9892   -709.12139    295723.99    15.309943 
15014000    2078.7002   -701.06519    298066.97    15.215265 
15014500    1859.2714   -698.72587    301559.19    15.363004 
15015000    2047.9604   -698.11824    299589.69    15.291748 
15015500    1970.0148   -690.24852    305343.85    15.233153 
15016000    1938.8231    -762.0515    302224.01    15.685351 
15016500    1971.3109   -750.68468    301405.78    15.826712 
15017000    1870.3111   -746.09609    306066.17    15.774535 
15017500    1814.6619   -697.31631    295346.14    15.402615 
15018000    2130.4462   -626.69542    304303.57     14.78954 
15018500    1926.9821   -639.38003    296360.81     15.01079 
15019000    1960.4039   -620.51545    301885.79    14.915816 
15019500    1926.2272   -734.22821     300674.7    15.746429 
15020000    2251.4237   -679.03628    300773.39    15.278508 
15020500    1940.4669    -703.1503    296202.41    15.619238 
15021000    2137.9532   -646.94064    299426.47    15.115601 
15021500    1973.3473   -687.44123    297383.27    15.392263 
15022000    2066.1732   -687.22709    305362.95    15.359692 
15022500    1968.6252   -691.18043    297099.95    15.485922 
15023000    2066.0067   -678.53084    304068.06    15.369799 
15023500    1898.2408   -690.52059    297139.08    15.417527 
15024000     2061.132   -620.00359     303145.7    14.994857 
15024500    2085.9025   -699.39459    295993.92    15.543431 
15025000    2115.2976    -693.5875    298132.19     15.54455 
15025500    1860.2946   -663.15571    300653.46    15.235354 
15026000    1718.5147   -715.54349    296555.47    15.779155 
15026500    1893.0666   -710.94358    298997.91    15.726506 
15027000    2001.0522   -722.48639    299030.92    15.771615 
15027500    2210.4165   -727.70775     299277.8    15.880828 
15028000     1981.784   -651.91592    302606.34    15.306519 
15028500     1916.355    -608.6491    293375.49    15.034905 
15029000    2133.4157   -645.96596    303955.72    15.132418 
15029500    1907.2527   -702.81275     298022.9    15.456175 
15030000    1938.1763    -676.1037     298432.1    15.362804 
15030500     1942.678   -666.88342    297934.23    15.245573 
15031000    1914.6873   -685.06328    297535.69    15.490887 
15031500    2189.2534   -636.31298    298354.38    15.078387 
15032000    2216.7204   -690.23448    303619.81    15.376868 
15032500     1968.688   -680.69959    299602.24    15.443079 
15033000    2080.2531   -697.28131    298062.43    15.465279 
15033500    1984.7562   -689.96336    298385.05    15.458898 
15034000    1989.3951   -676.37365     304693.8    15.385397 
15034500    1922.8376    -691.1657    300491.36    15.485585 
15035000    1968.5092    -650.6864    299934.53    15.108046 
15035500    2067.4397   -636.91565    281835.36    14.798461 
15036000    2048.3821    -592.5832    307129.32    14.514575 
15036500    1953.4241   -664.32925    298791.02    14.881872 
15037000    2059.3879   -611.35315    314563.19    14.547737 
15037500    1903.0691   -603.61486     303160.5    14.522063 
15038000    2001.5173   -642.34991     296653.5    14.728832 
15038500    2080.3683   -623.91977    301046.48    14.624008 
15039000    2155.3348     -636.565    301285.88    14.739817 
15039500    2019.9513   -595.60112    318883.68    14.496453 
15040000    2099.3812   -658.70141    299799.51    14.877508 
15040500    1993.4228   -625.65749    290814.14    14.658884 
15041000    1886.4814   -631.82144    305289.12    14.623914 
15041500    1945.2614   -647.04254    308469.99    14.695499 
15042000    2031.1427   -618.69411    311142.28    14.582097 
15042500    2079.8738   -601.99598    314342.69    14.516226 
15043000    2188.2068   -605.65628    294726.04    14.551597 
15043500    2134.6981   -677.22266    292502.58     15.01772 
15044000    1984.8109   -609.71845    314501.27    14.523217 
15044500    1950.3013    -660.0433    302839.76    14.805896 
15045000    2070.0472   -654.39419    307077.32    14.737444 
15045500    2271.9058     -619.399    314177.57     14.61122 
15046000    2105.6996   -626.79409    302101.54    14.683242 
15046500     1937.302   -629.38039    287459.99    14.678556 
15047000    1932.2131   -670.70757    294507.66    14.928091 
15047500    1978.1751   -621.08554     295348.5     14.66917 
15048000    1967.3671   -686.56333    294219.06    15.098812 
15048500    1988.9092   -638.17243    299042.25    14.849902 
15049000     1861.986    -639.4309    299645.27    14.726259 
15049500    1998.9663   -595.47796    308115.33    14.541794 
15050000     1949.718    -681.8896    301907.74    15.018399 
15050500    2125.4956   -669.44976    302259.76    14.925593 
15051000    2065.9345   -633.37177     302273.5     14.67636 
15051500    2152.9178   -595.11895    303322.85    14.648665 
15052000      2098.67   -721.38662    303982.92    15.314209 
15052500    2119.6488   -761.35933     299621.5    15.628083 
15053000    2004.9271   -716.93592     293795.4    15.362883 
15053500    2113.5783   -765.81528    304392.23      15.6922 
15054000     1949.986   -744.49533    303139.26    15.459712 
15054500    2054.8097     -736.955     298924.6     15.50376 
15055000    1900.7731   -751.45281    301930.65    15.949273 
15055500    2163.7981   -750.89716    307930.67     16.00791 
15056000    2088.8597   -682.76393    301364.41    15.528558 
15056500    2204.6753   -689.49032    298148.23    15.402813 
15057000    2047.6747   -710.65785     296204.7    15.553369 
15057500    1997.8901   -658.84957    300541.18    15.192631 
15058000    2161.2827   -728.03688     299099.4    15.841069 
15058500     1832.692    -664.1449    302138.26    15.315618 
15059000    1865.8337   -682.11605    297443.05    15.540543 
15059500    2020.3322   -658.37584    295217.91    15.254806 
15060000    2096.8734   -617.58158    298890.18    15.023815 
15060500    2035.5341    -599.0595    304274.27    14.875586 
15061000    2030.4369   -735.26942    302763.96    15.704015 
15061500    2116.2223   -742.59916    295945.79    16.021221 
15062000    1929.5549    -654.0737    306553.96     15.26947 
15062500    1955.5727   -669.15611    297933.97    15.410888 
15063000    2235.8021   -663.39697    306026.25    15.214849 
15063500    1986.2438   -623.66815     296770.6    14.876693 
15064000     1867.652   -719.12015    299175.66    15.610641 
15064500    1994.8943   -755.66791    299219.61    15.906052 
15065000    2136.1395   -760.31356    298170.11    15.932288 
15065500    1940.9572   -731.33196    301672.45    15.710293 
15066000    2001.3212   -753.88209    303798.96    15.956248 
15066500    2110.6557   -670.47922    301030.31    15.131614 
15067000    1918.3004     -615.667    301271.95    14.845233 
15067500    2080.2142   -637.73107    302371.68    15.118218 
15068000    2181.3053   -708.59496    303203.24    15.640595 
15068500     2048.234   -714.37717    299834.92    15.805909 
15069000    2258.6618   -725.48989    301234.44    15.794121 
15069500    2165.0709   -674.50455    302178.13    15.380584 
15070000    1837.0927    -652.2028    303721.13    15.169933 
15070500    1956.0982   -754.25174    273745.35    15.950514 
15071000    1850.5985   -747.56652    298752.29    15.771233 
15071500    1877.8719   -756.71411    302531.77    15.737248 
15072000    2073.2635   -776.92355    283637.65    15.876066 
15072500    1986.2717   -759.86524     293304.2    15.852934 
15073000    2023.5561   -759.17899    294248.17    15.892102 
15073500    1967.6031    -686.8077    297194.74    15.395416 
15074000    2003.7416    -689.8154    306454.08    15.446636 
15074500    2004.8039   -678.46134    309704.46    15.255112 
15075000     1914.294   -776.51695    300936.69    15.858526 
15075500    1928.1953   -779.90562    289445.72    15.901228 
15076000    2061.1461   -757.22017     298850.7    15.598083 
15076500    2003.5901   -749.94121    303570.37    15.420977 
15077000     1870.942   -741.84428    308761.95    15.271029 
15077500    2123.1889   -674.85275    292684.27    14.887572 
15078000    2033.7971   -732.07343    297298.18    15.196768 
15078500    1873.9995   -714.70322    298328.91    15.120129 
15079000     2000.815   -732.80179    302030.63    15.215401 
15079500    2143.6031   -753.62993    300045.34    15.436608 
15080000    1882.8518   -758.97814    305291.11    15.786487 
15080500    1889.3841   -660.13398    293222.38    15.157751 
15081000    1990.9251   -615.27269    304671.61    14.909425 
15081500    1981.7021   -701.99766    294757.04    15.521052 
15082000    1899.3246   -678.47109    304837.02    15.345254 
15082500    2035.9037    -678.3602    304765.69    15.425285 
15083000     1909.414   -659.64253    299693.09    15.175714 
15083500    1800.9279   -754.36272    297054.23    15.866455 
15084000     2012.702   -752.47568    304991.79    15.780034 
15084500    2177.6424   -756.27465    304733.81    15.700592 
15085000    1826.2937   -707.64801     292500.2    15.622556 
15085500    1779.5502   -628.06912    294420.03    15.013881 
15086000    2021.7875   -621.23111    300749.21    14.771697 
15086500    2122.1953   -602.65558    302972.63    14.745481 
15087000    2111.9227   -590.31714    300167.99    14.568261 
15087500    1948.3898    -603.5393    290985.82    14.733028 
15088000    1816.7637   -564.16233    300616.56    14.575573 
15088500    2075.0871   -571.64823    298650.04    14.535464 
15089000    1989.7528   -568.83943    298176.43    14.545566 
15089500    1800.5019   -552.20946       299119    14.557918 
15090000    2028.0673   -557.78196    298733.38    14.609885 
15090500    2131.5214    -560.1502    328883.58     14.52126 
15091000    1976.1113   -688.69924    294176.24    15.030747 
15091500    1879.1873   -599.85276    293290.23    14.612222 
15092000    2046.2444    -736.8167    301146.36    15.581816 
15092500    2004.1214   -750.36921    300959.51    15.719545 
15093000    1845.1084   -761.22658    292598.89    16.030701 
15093500    2033.8841   -699.04759    302916.93    15.483121 
15094000    1991.4971   -687.53947    297503.22    15.411138 
15094500    2054.4755   -672.24921    299556.12    15.352206 
15095000    2184.8865   -637.70183    300520.62    14.987627 
15095500    1923.2268   -715.72982    295747.25    15.871034 
15096000    1807.8228   -694.90267    295277.96    15.589236 
15096500    2177.4723   -673.12019     302358.7    15.329775 
15097000    2142.0773   -694.22666    296846.78    15.469599 
15097500    2096.3521    -648.8553    302097.04    15.136069 
15098000    1999.6354   -646.91038    300006.42     15.17625 
15098500    2056.0085   -700.60725    298628.01    15.497477 
15099000    1934.0684   -662.86067    303316.18    15.333766 
15099500    1964.8498   -671.80432    306005.04    15.390455 
15100000    1844.1057   -676.08206    302241.93    15.340007 
15100500    1905.9302   -692.94181    299485.42    15.400208 
15101000    2066.8777   -611.33276    308204.11    14.849301 
15101500    1884.1485   -702.46094    297283.73    15.500439 
15102000    1958.5977   -687.68924    295596.72    15.386113 
15102500    1995.8209   -681.71649    303942.44    15.282993 
15103000    1920.1837   -690.34236    302122.33    15.180136 
15103500    2159.5683   -703.87735     299951.2    15.290475 
15104000    2114.9375   -746.35316    302717.42    15.617182 
15104500    1992.8495   -770.35926    287798.24    15.887338 
15105000    2046.2006   -772.76835    313014.15     15.82176 
15105500     1980.316    -770.0085    303781.63    15.699041 
15106000    2236.8849   -728.03155    297469.09     15.26381 
15106500    2065.9827   -686.01147    301317.44    14.885591 
15107000    1941.7343   -667.88844    302657.16    14.780728 
15107500    1940.0039   -658.70969     292577.8    14.850418 
15108000     2131.029   -661.63948     305459.1    14.741766 
15108500    2048.9202   -722.41313    296522.12    15.183273 
15109000    2089.7979   -698.13507    311158.78    14.961126 
15109500    1931.6552   -682.70651    298950.27    14.832987 
15110000     1999.536   -659.96282    308607.53    14.762854 
15110500    1925.6774   -771.49861    296880.92    15.459722 
15111000    2041.6581   -803.03654    311179.15    15.821086 
15111500     2015.663   -802.05527    309558.18    15.805807 
15112000    2002.0484   -809.69541    297291.69    15.859746 
15112500    2002.8325   -727.04155    302927.06    15.067946 
15113000    2175.8616   -713.27036    294933.18     14.93653 
15113500    1934.0574   -690.76096    292059.05    14.878165 
15114000    2229.9528   -697.36401    294551.74    14.907379 
15114500    2171.9279   -704.57032    308643.96    15.043858 
15115000    2038.3674   -757.23208    295097.47    15.540957 
15115500    2057.4213   -751.60331    293822.76    15.440221 
15116000    1966.2168   -749.65805     302949.6    15.449598 
15116500    2045.2984   -750.82776     301277.7     15.40045 
15117000    2073.8983   -704.03817    306585.09    14.945104 
15117500     1992.438   -694.97088    302550.17    15.001148 
15118000    2057.2602   -748.59493       294390    15.201499 
15118500    1942.2999     -742.331    300666.41    15.143077 
15119000     2188.911   -720.36767    304223.77    15.140975 
15119500     2198.705   -727.32868     306713.6    15.116798 
15120000    2032.7066   -795.67892    287880.03    15.828561 
15120500    2129.2393   -755.41658     302360.1    15.421283 
15121000    1974.0066   -753.98307    292995.37    15.507049 
15121500    2006.8829   -735.06509     300651.3     15.38255 
15122000    1954.3008   -727.80305    297271.69    15.401711 
15122500    2136.4795   -761.93265    299500.71    15.446436 
15123000    1935.5522   -639.75099    317599.74    14.733729 
15123500    2187.9053   -613.54582    291692.17     14.53745 
15124000    1916.1826   -621.62584    282179.02    14.532312 
15124500    1971.4199   -681.26767    295661.65    14.841744 
15125000     1963.306   -690.13947    304579.61    15.098618 
15125500    2261.7291   -700.34669    308908.39    15.110683 
15126000    1856.4587   -701.89409    303349.79    15.103127 
15126500    2124.0152    -707.5007    303461.58    15.154125 
15127000    2032.6786   -781.18905    302242.48    15.663806 
15127500    1953.5844    -695.2565    301390.89    14.899707 
15128000    1974.0426   -654.78852    301580.49    14.810698 
15128500    1965.1454   -672.49425    299030.39    14.798334 
15129000     1915.713   -705.44434    297706.96    14.944296 
15129500    2011.5241   -644.89759    308535.36    14.527633 
15130000    1997.9639   -742.88121    298800.96    15.264147 
15130500    1989.0206   -742.70056    299740.38    15.270658 
15131000    2158.7895   -746.75198    309344.63    15.107103 
15131500    2029.1446   -766.98557    293180.27    15.149725 
15132000    2013.2733    -736.0714    298695.25    15.216803 
15132500    1920.4718   -741.20418    303450.73    15.197906 
15133000    2122.5991   -751.98785    299511.12    15.284936 
15133500    1923.5921    -696.9367    303537.77    14.815278 
15134000    2014.2495   -772.78171    297696.35    15.350994 
15134500    1870.5381    -765.2634     292133.3    15.233804 
15135000    1884.0793   -752.07554    300337.01     15.16596 
15135500    1990.0193   -744.14576    303138.77    15.194185 
15136000    1959.5644   -747.22554    301471.28    15.219982 
15136500    1966.8963   -750.38695    301016.65    15.190683 
15137000    1902.8419   -758.79642    292379.35    15.297732 
15137500    2042.6771   -697.82386    304749.66    14.789663 
15138000    1905.7429   -701.05002    298462.81    14.843987 
15138500    1967.8314   -695.96465    290073.37    14.890236 
15139000    1941.6455   -703.14389    302794.53     14.82815 
15139500    2035.6094   -694.24775    305113.53    14.801776 
15140000    1956.4404   -699.32141    295959.56    14.873452 
15140500     1898.715   -694.69369    300099.93    14.908798 
15141000     2069.089   -753.05972    295846.45    15.281397 
15141500    2040.2835   -760.04669    294279.23    15.329547 
15142000    1920.5237   -639.40919    303535.45    14.690731 
15142500    2421.8238   -742.36151    305317.58    15.169946 
15143000     1916.731   -783.49458    302538.88     15.48532 
15143500    2028.9678   -792.88045    285069.74    15.814286 
15144000    1864.5525   -774.44438    287821.29     15.65362 
15144500    2049.6249   -648.01488    298739.46    14.659238 
15145000    2165.5864   -644.07045    292596.96    14.587697 
15145500    2083.9778   -649.41615    293255.41    14.564808 
15146000    2016.4537   -638.95658    304666.36    14.538577 
15146500    1894.9273    -676.6049    308649.93    14.702231 
15147000    2175.6058    -752.8389     300231.8    15.114131 
15147500    2080.3444   -755.91458    297962.77    15.168519 
15148000    1967.0474   -745.87713     298127.7    15.148521 
15148500    1842.3038   -773.28889    292741.57    15.287208 
15149000    2005.4803   -729.37565    298065.08    14.946046 
15149500    2062.4634   -703.60138    307735.37    14.766265 
15150000     2060.421   -708.77582    301088.97    14.865098 
15150500    2116.4386    -705.8978    308289.26    14.794668 
15151000    2053.8998   -676.64691    300301.12     14.78005 
15151500    1941.8903   -688.48056    293989.08     14.94393 
15152000    1946.1954   -729.83068    295694.09    15.226985 
15152500    1893.6453    -761.5083    297118.64     15.51483 
15153000    1979.8334   -771.99664    303651.58    15.552874 
15153500    1995.7148   -795.67886    278201.84    15.843505 
15154000    1807.1475   -805.72554    307405.65    15.841174 
15154500    1990.6779   -806.15367    285491.51    15.882708 
15155000    2102.4167   -724.68529    300719.34    15.084219 
15155500    1995.0906    -710.5414    295500.06    14.925458 
15156000    1997.1741   -767.43118    296869.07    15.525076 
15156500    1924.9171   -786.78646     298232.4    15.662456 
15157000    1965.4396   -772.79627    302340.15     15.60028 
15157500    1948.2325   -756.45886     291854.8    15.270984 
15158000    1917.2755   -699.35388    296215.77    14.823958 
15158500     2037.425   -665.45137    299208.82    14.747102 
15159000    1822.6726   -715.00192    293972.17    15.128641 
15159500    1833.2511   -684.75648    291914.67    14.875926 
15160000    1740.2619   -694.60403    295736.41    14.956527 
15160500    2123.4275    -716.6752    298715.42    15.135697 
15161000    2108.8109   -691.51911    296206.04    15.050937 
15161500    2011.1489    -704.2222    302996.08     15.10666 
15162000    1831.5105   -714.64027    299869.76    15.131337 
15162500    2202.4259   -727.14177    293830.01    15.186864 
15163000    2104.8602   -675.20008    297781.46    14.846094 
15163500    1954.9766   -675.62597    296807.96    14.867375 
15164000    1989.1105   -711.96006    294530.85    14.981847 
15164500    2052.2534   -741.16542    304389.27    15.097126 
15165000    2090.4979   -689.52173    285974.55    14.842288 
15165500    2057.2131   -671.63751    294597.93     14.86568 
15166000    2057.9171   -675.51937     312170.7    14.760635 
15166500    1909.1413   -688.53854    298952.22    14.805653 
15167000    2048.4475   -697.47422    293334.38    14.929324 
15167500     1949.553    -682.6285    295649.92     14.88087 
15168000    2166.7198   -702.72869    294922.67     14.85078 
15168500    1993.1115   -725.14726    304824.33    15.080533 
15169000    2129.0768   -785.62913    299534.17    15.711967 
15169500    2008.8102   -789.30039    299336.13    15.758631 
15170000    2128.0931   -794.08265    311223.28    15.738058 
15170500    1908.0812   -748.18819    299971.03    15.471459 
15171000    2012.7849   -746.62821    304286.71    15.450397 
15171500    2088.6853   -764.12615    304000.56    15.510604 
15172000    2082.9242   -767.24805    303085.08    15.529249 
15172500    2082.6039   -757.91561    301523.24     15.48065 
15173000    2054.6541   -751.47952    301669.64    15.499113 
15173500    1995.9711   -789.32982    294993.11    15.846967 
15174000    1976.0663   -780.37422    304806.68     15.84857 
15174500    2096.3777   -746.11902    304128.31    15.596314 
15175000    1937.1553   -730.86688    285192.74    15.542021 
15175500    1851.6516   -749.54366    302534.63    15.550084 
15176000    2200.8352   -778.56618    302440.51    15.621199 
15176500    2034.6871   -755.76964     302956.3    15.379077 
15177000    1906.4952   -772.01191    301133.99    15.555693 
15177500    1949.0499   -736.39095     296026.4    15.235286 
15178000    1963.2993   -660.07635    299820.47     14.79186 
15178500    2129.7057   -672.74363    309717.05    14.784314 
15179000    1954.6907    -670.5173    300747.98    14.812747 
15179500     1899.267   -639.92458    305613.16    14.724449 
15180000    1943.9065   -762.69709    286380.36    15.514528 
15180500    2024.6735   -756.16384    290357.14    15.478738 
15181000    2103.5616   -748.61772     291165.2    15.490384 
15181500     2065.773   -757.58651    304725.51    15.469472 
15182000    1990.8501   -756.33837    298553.28    15.426318 
15182500    2096.9326   -784.18036    299420.75    15.647479 
15183000    1957.0103   -750.33336    299429.24    15.158112 
15183500    1996.8639   -717.91723    292567.88    14.884463 
15184000     1951.326   -707.55601     295120.9    14.850431 
15184500    1912.8441   -668.66675    305125.69    14.734365 
15185000     1991.342   -702.78975     303192.9    15.010567 
15185500    1929.1619   -707.74384    287781.21    14.943286 
15186000    1963.1295   -699.43383    297821.36    14.897839 
15186500    2021.3614   -706.70319    302063.03    14.995476 
15187000    1937.4539   -700.98114    298635.81    15.011895 
15187500    2153.2129   -692.87035    297261.22     14.82925 
15188000    2061.8213   -694.15949    296965.06     14.85171 
15188500    2096.3248    -687.3253    302691.87    14.794788 
15189000     2120.398     -672.518    307121.05    14.717954 
15189500    2043.6943   -727.86042    298813.35    15.280157 
15190000    2143.6438    -714.9925    301117.38    15.048881 
15190500    2022.5203   -706.55608    298882.42    15.039718 
15191000     2051.664    -684.7797    295988.43    14.831046 
15191500    1870.8533   -761.55205    296058.17    15.472777 
15192000    2014.6953   -762.92262    302549.86    15.514451 
15192500    1982.3047   -792.47504    304772.98    15.823609 
15193000    1900.5637   -790.40762    312742.84    15.758951 
15193500    2017.5941   -792.65108    314763.81    15.781049 
15194000     2034.965   -751.28955    302383.22     15.35397 
15194500    1847.1545    -666.8505    298289.53    14.863394 
15195000    2020.3246   -697.65766    307475.03     14.79127 
15195500     2083.963   -699.28741    302342.52    14.834822 
15196000    2164.7872   -708.87013     292895.1    14.852929 
15196500    1935.8182   -694.79168    290581.12    14.910458 
15197000    2025.7618   -683.94196    300611.03    14.885565 
15197500    1784.3815   -680.84294    297218.27    14.811914 
15198000    2085.0466   -635.03677    291983.65    14.574124 
15198500    1951.6286   -640.45702    297167.75    14.573772 
15199000     2121.634   -707.41491    303687.35    15.015339 
15199500    1901.8298   -762.81253    300267.98    15.493196 
15200000    2060.1408   -760.66411    293524.21    15.507939 
15200500    1901.8133     -743.223    303670.33    15.400939 
15201000    2107.5957   -752.91157    298955.64    15.482874 
15201500    2059.9345   -749.38157    303196.81    15.452237 
15202000    2139.6842   -718.61744    302805.48    15.119261 
15202500    2243.8789   -790.42943    291363.72     15.79435 
15203000    2175.1628   -796.39042    287950.24    15.850245 
15203500    2060.9275   -780.42206    296478.59    15.831706 
15204000     2056.347   -776.23489    314029.13    15.829938 
15204500    1819.2503   -769.20279     293367.4    15.888699 
15205000     2069.161   -738.98045       303071    15.629069 
15205500    1989.1964   -664.34346    301574.16    15.073798 
15206000     2086.999    -629.4108    308765.88    14.894846 
15206500    1935.5766   -635.74871    298881.94     15.00028 
15207000    2047.6692   -642.48373    303979.55    14.820895 
15207500    2189.1568   -674.33171    293240.99    14.923946 
15208000    1998.6151    -712.4479    295824.95    15.074266 
15208500    2132.1948   -716.65051    297778.22    15.107039 
15209000     1984.827   -775.95391    309223.71    15.774544 
15209500    1959.4182   -784.17917    288367.42    15.856983 
15210000    2120.5478   -781.61573    302697.76    15.786539 
15210500     1842.194   -776.00748    301016.51    15.721786 
15211000    2073.8625    -751.3494    303668.97    15.412204 
15211500     1811.917   -743.33875    305454.31    15.389347 
15212000    2062.2902   -744.34562     303470.6     15.35906 
15212500    1959.2636   -676.92571    294790.14    14.853885 
15213000    2010.9179   -712.86973    298500.62    15.095386 
15213500    2043.0176   -726.17894    299676.01    15.251032 
15214000    2155.2266   -746.79854    306302.22    15.448068 
15214500    1979.3324   -753.52062    302466.69    15.488699 
15215000    1822.5803   -761.31585    297041.61     15.59958 
15215500    1976.4868   -765.55952    300897.82    15.548114 
15216000    1929.0855   -791.83872    292586.19    15.612937 
15216500     1949.243   -727.20177     298923.3    14.990659 
15217000    1830.6664    -724.8325    296879.26    14.976186 
15217500    1985.3399   -790.56538    299205.35    15.488919 
15218000    1901.7876   -788.93437     300664.5    15.523817 
15218500    2031.6573   -771.72156     301341.5    15.442759 
15219000    2100.0165   -716.42979    298756.05    14.987371 
15219500    1925.9517    -692.1661    294662.74    14.901215 
15220000    2023.8326   -664.73578    292142.29    14.933696 
15220500    2001.5377   -666.63589    293243.37    14.993786 
15221000    1958.8261   -792.35974    305304.84    15.834749 
15221500    2078.3158   -791.73942    314931.77    15.801589 
15222000    2169.4988   -779.55137     300472.8    15.852592 
15222500    1991.2682   -774.73237    318014.47    15.821858 
15223000    1926.0566   -770.20924    290995.62    15.855478 
15223500    1907.7545   -682.20975    303975.42    15.227163 
15224000    2180.1645   -731.96193    293522.09    15.603214 
15224500    2010.2616   -735.39135    308738.18    15.361778 
15225000    2027.1514   -761.48177    299161.08    15.672184 
15225500    1964.9158    -751.3482    303414.49    15.787165 
15226000    1842.5287    -755.5509    305422.74    15.703303 
15226500    1972.9733   -764.69297    291217.91    15.795747 
15227000    2048.1857   -760.74994     299089.9    15.779187 
15227500    1919.0185   -757.61746    299497.79     15.82308 
15228000    1851.4377   -769.74114    285431.13    15.907301 
15228500    1970.2732   -760.26052    298650.69       15.623 
15229000    1987.2215   -734.23625    302531.71    15.450172 
15229500    2094.9859   -749.66185     300259.2    15.540701 
15230000      1813.21   -719.13522    304824.96    15.183298 
15230500    1918.2412   -753.25579    293522.97    15.534278 
15231000    1805.6232   -732.59282    300214.28     15.37555 
15231500    2053.4807   -755.45288    300587.22    15.636735 
15232000    1958.1203   -733.13695    304111.69    15.626893 
15232500    1836.9333   -728.77156    300680.25    15.486916 
15233000    2147.5708   -718.81967    301782.74    15.152158 
15233500    1896.9744   -671.58757    292885.05    14.856662 
15234000    2008.5679   -643.46262    302453.31    14.823049 
15234500    2020.3395   -687.02821    295982.06    15.056302 
15235000    1989.4778   -626.05211    283797.99    14.700783 
15235500    2112.6637   -667.33282    300843.23    14.872925 
15236000    2135.6972   -684.45079    301180.92    14.973579 
15236500    1922.8279   -736.15356    295531.01    15.382137 
15237000    1843.1765   -732.56105    303797.38    15.374243 
15237500    1831.9258   -718.44231    301223.55    15.207319 
15238000    2130.9369   -699.93057    298276.65    15.004779 
15238500    2023.8222   -755.76998    299394.82    15.546745 
15239000    2001.3114   -733.20764    300694.13    15.334166 
15239500    1924.1614   -762.88749    301916.65     15.63351 
15240000    1961.8437   -758.08018    305085.09    15.604885 
15240500     2013.052   -758.56308    303808.89    15.735794 
15241000    1909.5245   -711.21839    305427.32    15.173819 
15241500    1880.9174   -750.52211    296512.93    15.535542 
15242000    1913.2413   -713.77749    303868.22    15.214871 
15242500    2014.0161   -748.29896    298351.05    15.428472 
15243000    2025.2508   -736.98801     299813.3    15.336659 
15243500    1996.0344   -739.54113    303232.23    15.322242 
15244000     2016.467    -763.8625    293955.66    15.619847 
15244500    1957.5715   -666.53278    298207.82    14.899367 
15245000    2045.9873   -692.96128    295565.22    15.006939 
15245500    2046.6249    -651.8963    313222.29    14.829374 
15246000    1974.2077   -753.02333    288934.96    15.493203 
15246500    1922.6009   -750.06244    298759.71    15.468911 
15247000    2000.8733   -738.01173     295352.4    15.318222 
15247500    2124.0187   -716.38633    305377.49    15.109631 
15248000    1988.1254   -691.64832     294871.8    14.983444 
15248500    1917.8396   -744.54214    292821.85     15.35899 
15249000    1983.4942   -679.06363    305565.68    14.905533 
15249500     2046.469   -672.53843    288206.32    15.024852 
15250000    2104.8723    -638.4779    303520.73    14.861595 
15250500    1696.9416   -639.72285    297600.03    14.817692 
15251000    2128.4224   -683.58976    295871.81    14.997341 
15251500     1900.866   -593.78236    303574.97    14.549599 
15252000     2038.766   -694.49131    296471.73    15.078348 
15252500    1859.1174   -570.12738    303093.67    14.528192 
15253000    1957.2373   -682.70912    294351.44    15.128875 
15253500    1870.1798   -646.09287    293590.57    14.827864 
15254000    1950.0334   -622.00614    296158.42    14.696896 
15254500    1878.7232   -676.38512    303952.32    14.929703 
15255000    1968.3278   -742.29468    296612.84    15.436492 
15255500    2080.0191   -751.36351    298659.43    15.538708 
15256000    2114.7581   -763.24466    300204.79    15.706509 
15256500    2131.9988   -752.43964     301985.3    15.539438 
15257000    2027.1451    -750.9903    296555.84    15.457826 
15257500    2129.5316   -663.25934    307731.83    14.878433 
15258000    2000.0884   -687.42257    296355.46    14.981143 
15258500    2092.7877   -661.73339    306747.34    14.893123 
15259000     1823.683   -625.20188    300027.16    14.763256 
15259500    1764.1986   -623.33821    298521.02    14.667864 
15260000    2141.0023   -631.38583    293379.02     14.77633 
15260500    1898.9824   -620.00347    297761.84    14.942057 
15261000    2032.6777   -708.88409    298379.99    15.509668 
15261500    1952.2887   -692.65659    298911.75    15.454317 
15262000    1936.6328   -626.00182    297886.76    14.980425 
15262500    2074.1319   -685.12898    307291.88    15.355008 
15263000    2087.5936   -672.19003    297562.79    15.282343 
15263500    2005.8794   -625.85027    309686.65    14.976145 
15264000    1894.2704   -697.60288    296651.08    15.479044 
15264500     2051.625   -668.67242    301515.75    15.121545 
15265000    1935.0462   -653.86453     291584.1    15.059492 
15265500    1894.1115   -637.33098    293019.78      14.9631 
15266000    2182.7284   -625.43681    304476.98    14.914439 
15266500    1953.3804   -649.89284    303669.12    15.093402 
15267000    2019.4277   -671.33627    299817.84    15.154349 
15267500    1858.2989   -614.37717    303414.03    14.856223 
15268000    2002.9809   -629.92872    296093.85    14.997749 
15268500    2034.5899    -665.2848    302143.46    15.224038 
15269000    1899.5169   -697.85165    296303.36    15.472073 
15269500    1852.6809    -681.1299    301520.86    15.406293 
15270000    1946.1193    -672.5756    300490.42    15.240264 
15270500    2033.0901   -649.55515    302101.92    15.091485 
15271000    2207.3895   -712.09412    299301.41    15.587762 
15271500    2006.3433   -647.56551    301245.76    15.143129 
15272000    1974.8167    -650.5604    301269.95    15.110264 
15272500    1946.1307   -625.03748    302253.27    14.983647 
15273000    1976.8583     -707.896    293092.57    15.623677 
15273500    1981.0452   -623.89403    309152.86    14.888275 
15274000    2050.9335   -640.34224    296955.48    15.109209 
15274500    2008.8558   -627.21608    302176.81    14.957219 
15275000    2110.6792   -689.19486    292506.42    15.441949 
15275500     2209.899   -696.74584    298228.26     15.40873 
15276000    1841.2829   -696.24116     301031.1    15.364591 
15276500    2126.0828   -588.16168     315731.3    14.620814 
15277000    2110.0841   -608.95857    299390.13    14.534732 
15277500    2194.7462   -611.36129    292370.77    14.511981 
15278000    1994.4371   -623.47638     293734.9    14.665916 
15278500    1896.7926   -760.02436    295731.79    15.578242 
15279000    2018.6376   -751.93726    294894.67    15.446201 
15279500    1898.0522   -717.29914    296169.65    15.108451 
15280000     2042.558   -732.59081    296688.06    15.206191 
15280500    2200.3803   -661.77688    309005.27    14.750513 
15281000    1944.5641   -661.79405    315984.45    14.688907 
15281500      1887.77   -754.43917    303003.68    15.435193 
15282000    2208.4288   -740.09261    306243.85    15.411363 
15282500    2288.4786     -756.838    293739.77    15.546804 
15283000    1933.6779   -694.36616    306513.67    15.115346 
15283500    2117.9722   -715.29849    308174.92     15.05225 
15284000    1984.0058    -717.5223    298291.79    15.116652 
15284500    2054.8982   -749.92958    300781.45    15.314285 
15285000    1997.5926   -694.87247     299324.4    14.887383 
15285500     1966.756   -673.62298    300460.73    14.812665 
15286000    2043.9924   -715.53637    297991.17    15.160054 
15286500    2007.1236   -748.72657    302857.65    15.403738 
15287000     1939.022   -753.40729    301125.81    15.406663 
15287500     2133.914   -740.54059    302660.32    15.271109 
15288000    2019.0945   -746.25405    297544.09    15.257107 
15288500    2137.7461   -733.81122    295745.29    15.200609 
15289000    1850.4354   -712.13676    295444.47    15.170147 
15289500    1904.8323   -730.16184    301131.78    15.304732 
15290000     2154.177   -734.57451    305728.53    15.273448 
15290500    1921.6226   -728.30428    303842.78    15.201098 
15291000    1829.7663   -708.15832     301494.4    15.073508 
15291500    2032.9439   -753.51236    294589.71     15.37646 
15292000    2133.1321   -744.36298    293709.24    15.257416 
15292500    1945.5425   -742.82869    303959.07    15.291124 
15293000    1890.5637   -735.15278    303078.78    15.336137 
15293500    2016.3052   -740.18853     303580.3    15.287169 
15294000    2119.3691   -773.73808    305794.56    15.507485 
15294500     2045.275   -779.44846    302816.39    15.630511 
15295000    1849.0129   -774.39932    307322.97    15.466567 
15295500    1944.1304   -730.58477       300072     15.23088 
15296000     1968.607   -667.34711    311670.54    14.750458 
15296500    2037.1083   -752.04579    293465.77    15.307002 
15297000    1883.0659   -775.08255    303500.92    15.545953 
15297500    2032.2921   -713.19027    305345.58    15.027397 
15298000     1924.953   -631.04253    290749.56    14.564377 
15298500    1782.6233   -595.93818    308939.63    14.543323 
15299000    2049.1918   -606.80952    295218.15    14.537199 
15299500    1916.2232   -599.03143    311687.81    14.537044 
15300000    2021.8481   -590.38895    344151.79    14.524596 
15300500    2138.0657   -602.76303    311765.12    14.520568 
15301000    2059.8835   -591.28844    316852.53    14.567003 
15301500     2016.508   -597.59347    297164.94    14.551449 
15302000    2155.8174   -594.19524     299392.6    14.601961 
15302500    2057.4394   -647.10468    298447.78    14.898746 
15303000    1828.9775   -643.87089    291912.56    14.964135 
15303500     2138.983   -634.19943     314777.2    14.844873 
15304000    1800.9675   -635.25972    307003.89    14.820939 
15304500    1959.2301   -674.23444    299483.41     14.79994 
15305000    1839.2353   -657.42055    298159.67    14.823222 
15305500    2065.2336    -705.7186    302780.89    15.075388 
15306000    1979.8337   -754.39003     295466.3    15.531566 
15306500    2060.2124   -773.22369    299118.43    15.614829 
15307000    1897.1325   -666.28831    293425.52    14.976084 
15307500    1877.6366   -592.62623    309483.04    14.541411 
15308000    2066.9595   -616.24427    288237.68    14.756184 
15308500    1902.7252   -649.32678    302493.69    14.977458 
15309000    2072.7704   -634.94211    308217.34    14.974516 
15309500    1912.1432   -687.96494    300621.54    15.352485 
15310000     1989.484   -754.84844    292150.01    15.774049 
15310500    2075.8169    -750.7222    274870.23    15.671076 
15311000    2039.0486   -727.79536     297407.8    15.671325 
15311500    2103.1396   -639.28954    295828.76    15.012021 
15312000    2093.6579   -728.66612    299073.57    15.321858 
15312500    1949.5637   -785.08625    301231.38     15.82168 
15313000    2045.9112    -778.2928    293776.92    15.664438 
15313500    2074.4943   -744.29281     302501.6    15.138708 
15314000    2188.8759   -721.99222    308445.46    15.086792 
15314500    2068.0512   -744.35291       306467    15.130495 
15315000    2020.3928   -758.86099    298153.81    15.159532 
15315500    1979.8641   -752.05313    294618.94    15.319148 
15316000    1873.8479   -740.37251    306884.31    15.117065 
15316500    1973.0688   -764.92216    292573.45    15.281424 
15317000    2171.0471   -779.74785     300284.6    15.302401 
15317500    2045.0198   -696.17428    307447.83    14.793317 
15318000    1937.9694   -701.42487    295793.18    14.937142 
15318500    2001.7531   -709.79079    299113.22    15.090137 
15319000    2189.9555   -728.22416    296288.97    15.187019 
15319500    2099.8161    -742.7119    303384.31    15.299293 
15320000     2022.212   -774.89992    295941.77    15.670163 
15320500    2077.1717   -755.53249    305586.82    15.502528 
15321000    2069.3224   -791.08035    316523.01    15.766032 
15321500    1845.4057   -789.96414    295509.56    15.829479 
15322000     2071.488   -775.52364    299890.53    15.773817 
15322500    1905.9302   -797.09254    305358.04    15.782862 
15323000    2065.5255   -792.95945    299319.25    15.704205 
15323500    1854.5803   -749.45731    299980.31    15.433872 
15324000     2142.595   -733.11742     298010.8    15.268344 
15324500    2013.6094   -702.68293    307266.28    15.078537 
15325000    2057.0653   -753.80335    298023.72    15.485378 
15325500     2146.003   -733.65955    309324.75    15.103967 
15326000    1879.8816   -768.22564    301172.29    15.570698 
15326500    1984.1674   -797.70105    309255.97     15.79245 
15327000    1932.9485   -801.70012    305580.83    15.820355 
15327500    2078.4509   -758.44323    302068.05     15.43282 
15328000    1966.7956   -764.82809    301032.07    15.533468 
15328500    1967.0726    -752.2871    302512.93    15.468214 
15329000    2026.0289   -765.51548    297708.96    15.516807 
15329500    2008.1305   -781.53422    305203.58    15.637833 
15330000    2083.5885   -747.88262    304258.84    15.388808 
15330500    2001.7615   -723.93118    304875.86    15.166746 
15331000    1964.7128   -754.74313    294788.48    15.525469 
15331500    2044.1993   -777.21315    300371.57    15.587172 
15332000    2035.1464    -804.5429     302660.3    15.861415 
15332500    2322.7373   -707.48237    304488.71    14.986263 
15333000    2027.8997   -671.85396    297811.09    14.813901 
15333500    1932.2347   -653.25468    296843.02    14.668968 
15334000    2048.3491   -717.09029    298121.61     15.08635 
15334500    1990.5751   -719.36605    298720.68    15.250306 
15335000    1966.3554   -719.23303    301553.37    15.066294 
15335500    1854.9603   -697.74602    302549.34    14.887359 
15336000    1935.7199   -706.69295    299945.97    14.932578 
15336500    2077.5164   -693.87206    301682.46    14.970175 
15337000    2174.1492   -741.83438    301862.41    15.241928 
15337500    2194.3778    -762.9003    304823.47     15.49432 
15338000    1967.5621   -770.52782    299331.06    15.521111 
15338500     1927.375   -668.03964     305467.9    14.763716 
15339000    1933.9674   -667.27857    290396.03    14.879795 
15339500    2148.6076   -661.79071    302115.09    14.795724 
15340000    2036.5546   -671.89436     298878.1    14.829955 
15340500    2030.4891    -706.3168    294495.97    14.858011 
15341000    1749.5747   -699.43563    300354.65    14.801942 
15341500    2023.1433   -757.83738    291561.41    15.245351 
15342000    1861.8247   -716.00833    298589.08    14.978219 
15342500    1967.8084   -763.45634    289400.68    15.292981 
15343000    1789.8802   -669.54076    298771.54    14.734487 
15343500    1967.4282   -708.77928     297678.4    14.854669 
15344000    2009.8848   -690.88113    301629.86    14.879612 
15344500    1936.5047   -701.17206    304230.09    14.935607 
15345000     1906.012   -766.58539    294612.96    15.502542 
15345500    2137.5062   -759.80256    294640.41    15.237237 
15346000    1924.6333   -747.33422    301011.88    15.202773 
15346500    1971.9057   -738.40797     304555.9    15.162514 
15347000    2004.0695   -751.77716    294380.65    15.220758 
15347500    2060.2903   -757.41901    300367.27    15.390182 
15348000    2050.2744   -748.87566    288025.65    15.591111 
15348500     2097.491   -749.70395    307314.49    15.458414 
15349000    1984.2476   -740.05286     303910.9    15.356534 
15349500     2180.429   -709.94157    303027.38    15.125713 
15350000    2076.4267   -744.89005    305013.04    15.284804 
15350500    1883.1438   -803.51011     286689.3    15.876012 
15351000    1917.0239   -805.60057    301846.76    15.842464 
15351500    2036.6274   -782.65823    303274.07    15.649111 
15352000     2171.734   -744.40912    298095.98    15.284868 
15352500      2088.92   -655.05581    320274.01    14.680186 
15353000    2001.8299   -738.24947    300517.61     15.18791 
15353500    2045.7179   -754.81115    294477.09    15.242715 
15354000    2052.1419   -700.33943    307572.96    15.078338 
15354500    2156.8415   -761.47107    301834.38    15.497219 
15355000    2148.1235   -757.48606    300063.63    15.399367 
15355500    1969.9902   -749.43822    300469.73    15.397924 
15356000    2019.7032   -735.39447    306951.04    15.603567 
15356500    1780.6686   -764.99788    297323.26    15.854891 
15357000    1865.4585   -774.82451    289675.97    15.902415 
15357500    1980.4023    -761.1296    302792.73    15.847357 
15358000    1962.1965   -769.21967    312388.91    15.807967 
15358500    1896.5616   -749.92164    300820.36    15.667852 
15359000    1901.8425    -754.7902    281988.01    15.784429 
15359500    2026.2934   -775.91083    315825.11    15.794796 
15360000    1964.7991   -781.75859    305011.95    15.839665 
15360500    1840.2508   -774.49911     293113.8    15.748634 
15361000    2122.8607   -772.34866    297369.31     15.38575 
15361500    1981.0424   -640.00227    301787.14    14.677371 
15362000    1991.5371    -726.6804     298122.7    15.150985 
15362500    2120.3593   -728.65195    296116.01    15.172988 
15363000    2026.1622   -750.74871    301033.78    15.353704 
15363500    2113.2031   -791.44862    313811.46    15.742565 
15364000    2058.7502   -694.45687    303446.93    14.848703 
15364500    1869.1273   -685.44274    306062.69    14.820624 
15365000    1955.8064   -707.01725    291365.93    14.924214 
15365500      1870.25   -707.86368    290062.05    14.926949 
15366000    1912.9452   -636.86499    293114.76    14.591841 
15366500    2224.5715   -785.81843    301764.12    15.754564 
15367000     1988.788   -787.09647    316240.75    15.761556 
15367500    1903.6885   -783.08261     304937.8     15.80898 
15368000    2106.8892   -786.85255    307101.78    15.859677 
15368500    1982.1699   -780.63402     291737.6    15.867882 
15369000    1992.2775   -784.62465    308554.76    15.849448 
15369500    1911.9406   -761.96817    303392.27    15.815318 
15370000    2084.8691   -750.77498    304849.18    15.471577 
15370500     2014.764   -765.24436    301208.82     15.50531 
15371000    1898.6078     -720.751    297792.45    15.121344 
15371500     1940.035   -677.39732    290818.08    14.866348 
15372000    1936.1712   -708.92088    302442.96    15.098371 
15372500    1889.9694   -792.73939    284451.12    15.833506 
15373000    2048.5031    -780.5878     303516.3    15.632297 
15373500    2184.8847    -760.4138    298345.09    15.330853 
15374000    1991.6883   -761.76928    297769.04    15.302594 
15374500    1913.0889   -697.20475    295845.49    14.880268 
15375000    2009.1412   -682.46878    303070.11    14.815277 
15375500    1965.6601   -706.98794       298822    14.810027 
15376000    1971.6878   -696.92835    307101.95    14.762599 
15376500    2124.8889   -705.18374    298390.34    14.863857 
15377000    2112.9495    -683.4956    307401.68    14.818121 
15377500    1822.6276   -799.81103    294964.35    15.800528 
15378000    1891.5911   -758.50756     295371.7     15.34444 
15378500    2088.6683   -766.76306    298672.05    15.408982 
15379000    1925.6176   -751.19693    303886.15     15.38676 
15379500    2131.7093   -781.27857    303095.01    15.603504 
15380000    1982.3837   -745.21769    303445.38    15.133245 
15380500    2017.7745    -760.4751    297133.64    15.170287 
15381000    1964.7587   -745.70439    300935.08    15.181079 
15381500    2193.0307   -685.56739    309410.88    14.789746 
15382000    1967.9142   -710.16766    290925.99    14.911439 
15382500    1928.9528   -700.39061    296607.84    14.907221 
15383000    1908.4738   -668.85442    297638.85     14.83839 
15383500    2036.9421   -672.13905    298688.62     14.85461 
15384000    1846.9044    -705.3566    297510.14    15.154861 
15384500    2087.8567   -731.89101    308301.57    15.382483 
15385000    2011.6375   -700.26182    297417.08    15.270003 
15385500    2073.7464   -716.98979    298282.43     15.24152 
15386000    2235.4497    -730.3766    299247.23    15.255243 
15386500     2154.183   -679.29982    302098.15      14.7899 
15387000      1989.87   -659.63413    305743.69    14.748278 
15387500    1879.0952   -784.95856    249195.81    15.934192 
15388000    2087.5547    -760.6567    300572.78    15.431966 
15388500    2035.5893    -786.8623    303470.59    15.505343 
15389000    1900.1439   -794.47219    288444.69    15.799055 
15389500     1912.959   -749.75546    304516.65    15.549776 
15390000    2020.6692   -719.17461    302007.17    15.226227 
15390500    1978.5279   -714.78115    298948.72    15.102458 
15391000     1997.839   -744.76216    303744.86    15.258729 
15391500    1986.6761   -650.37753    321025.31    14.715323 
15392000    1952.8453   -715.40295    298985.55    15.157331 
15392500    1939.5449   -747.09039    308624.04    15.367296 
15393000     2227.439   -739.90541    308624.55    15.447421 
15393500    1947.0716   -753.46664    301045.11    15.401225 
15394000    2080.3867   -741.19299     307353.9    15.295208 
15394500    1855.7523   -710.94686    300806.98     14.99809 
15395000    1983.4722   -685.97793    305134.19    14.833304 
15395500    1941.6357   -695.87931    285933.41    14.876536 
15396000    2058.2894   -671.63927    307903.28    14.737474 
15396500    1899.7408   -682.14093    298515.73    14.785949 
15397000    1951.4351    -710.3037    295194.86    14.947234 
15397500    2023.6792    -683.4487    306071.26     14.78505 
15398000    2083.2962   -704.08729    285735.86    14.954306 
15398500    1951.1721   -699.60082    306208.71    14.917028 
15399000    2093.5318   -670.64558    307902.32    14.758516 
15399500    2104.4111   -723.71452    304262.61     15.07437 
15400000    2143.9825   -743.66133    305964.45    15.249359 
15400500    1913.8261    -662.3696       307999    14.708473 
15401000    1898.3155   -627.07714    289377.54    14.620893 
15401500    2094.3635   -612.47516    272678.41       14.585 
15402000     2113.705   -602.63956    311976.97     14.51805 
15402500    2064.5617   -604.74145    291797.35    14.588114 
15403000    1975.3606   -602.07452    294991.96    14.527031 
15403500    2022.2968   -623.39465    298678.75    14.569985 
15404000    1821.1989   -699.78492    288707.05    14.929647 
15404500    1997.0245   -686.92178    298882.05    14.833408 
15405000    1877.4466    -702.5146    296456.55    14.924077 
15405500    1939.6872   -712.80454    308054.16      14.9699 
15406000    2007.9211   -684.01348    311126.25    14.812039 
15406500    1944.4981   -653.78574    312339.38     14.62808 
15407000    2020.9769    -685.9919    304957.56    14.809245 
15407500     2181.117   -703.55152    311106.19    14.897777 
15408000    1863.0785   -733.64017    302248.73    15.111791 
15408500    1990.3989   -695.45953    300035.47    14.883231 
15409000    1906.0285   -713.85098    301247.83    15.021159 
15409500    1973.1668   -720.33725    295010.35    15.009933 
15410000    2076.9261   -668.19957    306928.95    14.703096 
15410500    2081.6323   -652.40148    293500.95    14.687607 
15411000    1984.9954   -682.00478    310149.91    14.818285 
15411500    2001.9209   -676.71636    297591.22    14.776653 
15412000    1941.8307   -682.24958    302677.79    14.767174 
15412500    1995.7958   -675.04076    290019.21    14.747041 
15413000    1989.6953    -658.1596    309688.79    14.699829 
15413500    1954.5352   -680.46983    286247.11    14.833737 
15414000    1920.3186   -707.53458    296280.75    14.965158 
15414500    2039.2775   -695.26689    284610.89    14.907333 
15415000    1977.5396   -642.40296    315379.84    14.615968 
15415500     1704.882   -683.77801     303289.9    14.841533 
15416000    2030.4346   -676.39555    300543.18    14.801148 
15416500    1904.3745   -699.18882    297214.56    15.051109 
15417000    2156.6935   -718.68529    302057.28    15.106383 
15417500    2052.0626   -745.31549    295173.45    15.401352 
15418000    1888.6202    -754.1017    298964.83    15.516113 
15418500    2058.8236      -743.09     303502.6    15.442472 
15419000     2045.581   -765.60597    297401.58    15.684329 
15419500    1915.9744   -743.35253    304279.26    15.391809 
15420000    1966.4232   -740.23317    299206.05      15.3942 
15420500     1940.677   -738.36029    295573.84     15.34024 
15421000     2026.431   -713.31841    299423.58    15.271385 
15421500     1847.351   -622.53908    298334.05    14.672405 
15422000    2246.3853   -708.15326     306932.4    15.116176 
15422500    1968.3964   -756.18341    297493.21    15.639386 
15423000    2075.7272   -742.84755    303649.89    15.408139 
15423500     1907.578   -636.58122    295317.69     14.67904 
15424000    1851.1801   -705.17535    291155.21    15.114522 
15424500    2116.6248   -671.32707    301504.51    14.915414 
15425000    2052.7655   -673.29692    306564.94    14.890745 
15425500    1983.3383   -577.25938    347600.44    14.478383 
15426000    1870.3034   -725.75905    303586.57    15.295591 
15426500    2056.7719   -738.66103    299618.34     15.32215 
15427000    1901.2468   -746.73836    300491.94    15.447019 
15427500    1923.8393   -769.23494    297390.88    15.680442 
15428000    1836.1598   -757.90225    298357.61      15.8768 
15428500    1899.2678   -751.05224    300035.29    15.929705 
15429000    2130.7521   -754.45069    302829.21    16.022321 
15429500     2012.843    -742.9981    297834.53    15.854883 
15430000    1863.0017   -599.24503    301751.08    15.015783 
15430500    2103.7596   -664.47651    306595.65    15.400834 
15431000    2159.6546   -718.85027    297665.14    15.787614 
15431500    2228.5879   -713.69066    305223.77    15.758135 
15432000    1885.3402   -711.18781    294206.76    15.742568 
15432500    1944.1573   -725.32507    297258.67    15.859721 
15433000    1948.9193   -700.69839    295986.36     15.65912 
15433500    2135.2912    -658.8717     305990.7    15.256591 
15434000    1838.6143   -679.78504    296874.17    15.501208 
15434500    2006.4027   -736.91251    296353.12    15.933668 
15435000    2061.7693   -640.64289    300648.67    15.207997 
15435500    2023.4537   -678.99223    297591.26    15.371597 
15436000    1969.6395   -703.77868     298465.6     15.75619 
15436500    2093.3091    -724.6933    297889.45    15.902249 
15437000    2128.1349   -662.80496    298619.82    15.370863 
15437500    1914.2255   -729.39762    300783.19    15.800998 
15438000    1957.5856   -765.02704     299166.3    15.816425 
15438500    1955.7916   -749.88705    298046.07     15.73076 
15439000    1806.8928   -758.22645    298219.95    15.887593 
15439500    2120.9539   -717.87661    299434.88     15.35359 
15440000    2132.5584   -657.79385    312654.46    14.800762 
15440500    1686.0084   -709.64128    298266.78    15.161769 
15441000    1982.2568   -763.31257    291471.53    15.712755 
15441500    1990.4368   -748.97732    297428.09    15.593608 
15442000    2002.9923   -737.98573    297718.39    15.422058 
15442500    2298.8152   -749.34702    301350.22    15.460027 
15443000    1958.9694   -724.75974     302273.6    15.396431 
15443500    1973.5803   -759.61036    299730.23    15.654765 
15444000    1986.0716   -757.68833    303070.76    15.563371 
15444500     2024.717   -762.75861     298735.8    15.740314 
15445000    2140.7658   -731.96302    302137.28    15.581481 
15445500    2106.1409   -754.14725    296121.87    15.848184 
15446000    1948.8152   -634.03289    300247.04    14.972193 
15446500    2164.9366   -663.52185    303112.64    15.183865 
15447000    1891.9085    -750.1441    297214.13    15.888405 
15447500    1866.5836   -739.23129    301426.61    15.797193 
15448000    2088.6169   -718.74355    296193.85    15.607398 
15448500    2056.8002   -653.56711    308815.23    15.211291 
15449000    1941.9349   -716.87217     295877.1    15.756853 
15449500    2112.4313   -749.00193    305173.65    15.857465 
15450000    1956.6926     -759.507    297121.29    15.755717 
15450500    1921.3697   -752.51865    296627.83    15.900522 
15451000    1782.9301   -695.62564     299067.4    15.457031 
15451500    2071.8091   -608.67115    313075.07     14.94138 
15452000    1928.1518   -631.06334    295396.59    14.960913 
15452500    2042.7078      -644.86    296960.95    15.057777 
15453000    1850.7725   -619.85346    304462.61    14.966418 
15453500    1993.4915   -664.80709    298794.14     15.17445 
15454000    2033.4575   -655.21107     299247.4    15.150521 
15454500    1994.4377   -681.55853    299995.01    15.362574 
15455000    2121.7255   -697.83244    303873.23    15.459876 
15455500    2020.0294   -697.86295    296619.49    15.430508 
15456000    1825.2182   -715.90714    297156.18    15.545405 
15456500    2033.9501   -594.06308    301020.74     14.72375 
15457000    1884.6051   -656.07651    298415.88    15.055773 
15457500    1825.5684   -637.36976    294483.57    15.004153 
15458000     1829.574   -640.79044    295007.32    15.025577 
15458500    2137.3592   -612.26305     302280.9    14.757102 
15459000    2091.5741   -687.08459       298427    15.409789 
15459500    2174.5738   -665.41125    304090.78    15.186119 
15460000    1943.5334   -665.82149    301775.55     15.25392 
15460500    2090.9443   -677.09594    303794.37    15.429626 
15461000    2020.5772   -685.08433    302061.03    15.394853 
15461500    1965.4252    -670.7432    304970.18    15.325413 
15462000    2025.9039   -636.95338     297545.5    15.042881 
15462500      2037.72   -608.21427    308284.66     14.73735 
15463000     1910.384   -655.36209    292920.28    15.122997 
15463500    2080.1368   -665.94938    305402.95     15.25331 
15464000     2066.743   -680.34961    304167.13    15.327674 
15464500    2257.6345    -692.6554    303411.85    15.448113 
15465000    2043.9027   -730.97847    300593.05    15.717919 
15465500    2026.9967   -632.61481    295872.95    15.096135 
15466000    2088.4074   -626.02783    302331.91    15.055631 
15466500    2032.0579   -629.35979    303249.25    15.125346 
15467000    1912.8722   -721.06597    299016.08    15.620704 
15467500     1988.246   -757.32641    303064.61    15.859024 
15468000    2038.1677   -767.56904    289287.72    15.998186 
15468500    1886.9373   -657.45765    296988.13    15.016257 
15469000    2012.5127   -678.38667    292549.97    14.973792 
15469500    1953.1488   -688.60689    298105.59    14.970702 
15470000    1935.2716    -694.6729    297644.13    15.007288 
15470500    2076.4025   -751.01699    293090.83     15.50301 
15471000    1983.3475   -735.68554    307296.63    15.386615 
15471500    1978.9102   -764.04822    300722.83    15.695126 
15472000     1913.176   -664.04853    297358.97    14.895532 
15472500    2065.5386   -663.46606    307546.25    14.839366 
15473000    1867.4509   -613.83678    307046.25    14.632935 
15473500    2000.0887   -713.41028       296402    15.171545 
15474000    1846.9021   -753.89903    304591.77    15.687208 
15474500    1909.2025   -755.40759    303849.77    15.573062 
15475000    2173.9512   -750.53221    306276.67    15.722762 
15475500    1909.2255   -619.64183    306157.39    14.858518 
15476000     1898.462   -630.12865     306238.7    14.890817 
15476500     1858.973   -614.10155     304175.8    14.800959 
15477000    2012.4732   -633.77031    312187.58     14.88772 
15477500    2080.9641   -657.11918    288433.59    14.954618 
15478000    1984.7786   -746.53517    301733.97    15.397395 
15478500    1840.0934   -767.26841    296317.77    15.607851 
15479000    1946.3623   -656.35693    316895.28    14.695965 
15479500    2064.0327   -723.11235    299462.58    15.203068 
15480000    1939.1922   -743.29186    302370.04    15.466088 
15480500     2040.839   -763.13956    303630.03    15.519739 
15481000    1955.5199   -757.56426    300796.15    15.426625 
15481500    2162.2269   -750.98772    298957.53    15.235854 
15482000    2025.5905   -675.47601    294426.89    14.842876 
15482500    1869.8215   -666.26553    305326.42    14.757692 
15483000    2066.6567   -658.14096    299791.35     14.84572 
15483500    1925.7065   -760.14912    294823.39    15.337669 
15484000    1888.1599   -768.76164     289949.5    15.642994 
15484500    1834.1804   -692.05096    298411.59    14.969389 
15485000     2045.785   -657.56674    303775.88    14.779536 
15485500    1912.1507   -733.49127    300061.69    15.265923 
15486000     1996.623   -767.63723    301005.44    15.581652 
15486500    1968.1104   -739.49828    302399.93    15.368168 
15487000    2074.8072   -753.97268    300626.98     15.31856 
15487500    1910.7965    -770.3518    297034.36     15.40254 
15488000    2049.6083   -794.51572    302213.85    15.737462 
15488500    1864.1925   -721.95922    302607.78    15.179438 
15489000    2014.0278   -714.79075     303418.1    15.108769 
15489500    2072.0923   -710.19754    300657.94    15.011771 
15490000    1948.6889   -689.32207       300308     14.89603 
15490500     1997.721   -692.79072    300393.71    14.849221 
15491000    1859.1171   -715.27703    284995.06    14.863305 
15491500    1929.0625    -718.2657    302041.39     15.06881 
15492000    1887.6284   -757.39641     298950.6    15.374609 
15492500     2025.312   -696.57618       301235    14.937345 
15493000    2058.2032   -624.32556    295041.44    14.599831 
15493500    2156.4225   -701.79121    299441.52    14.961215 
15494000    1997.4473   -716.09636    303337.85    15.054579 
15494500    2192.0257   -759.64145    296623.38    15.279029 
15495000    1921.9172    -721.1168    297588.65    15.116933 
15495500    2119.4326   -754.90875    297082.59    15.237687 
15496000    1945.1676   -668.83045    300924.63    14.698637 
15496500    1930.3915   -666.35955    303246.41    14.747983 
15497000    1866.3674   -726.48329    299877.15    15.267776 
15497500    1995.4105   -769.52117    290133.52    15.653421 
15498000    2206.7312   -635.55554    310766.05    14.762226 
15498500    2151.9073   -727.41764    301956.28    15.362157 
15499000    1885.1149   -746.01207    302835.41    15.500535 
15499500    2047.4928   -749.08713    301382.78    15.427564 
15500000      2103.93   -751.58449    304325.86    15.543347 
15500500    1907.9034   -764.77772    292737.03    15.610269 
15501000    1833.9848    -672.3092    298633.69    14.847738 
15501500    2102.0553    -701.4585    300415.82    14.961855 
15502000    1996.2164   -679.04081    300252.11    14.817611 
15502500    1949.4189   -664.32194    292400.55    14.852505 
15503000    1979.3602   -669.54866    297302.65    14.780708 
15503500    2011.4813   -665.26665    303129.56    14.820932 
15504000    1912.8126   -690.16597    300521.76    14.948298 
15504500    1985.8431   -769.59319    300198.44    15.486374 
15505000    2183.9331      -711.33    295464.07    14.900784 
15505500    1893.4603   -690.53895    293149.52    14.901117 
15506000    2023.7437   -674.52717    291001.79     14.86225 
15506500    2193.2715   -754.04802    299527.61    15.273094 
15507000    1955.1085   -693.27567    285728.13    14.906094 
15507500    2016.8912   -734.40388    296942.76     15.22375 
15508000    1943.2308   -782.68376    299862.55     15.61941 
15508500    1966.5963   -740.43363    309164.82    15.119652 
15509000    2022.5773   -741.72629    303102.82    15.159657 
15509500    1835.2849   -702.01894    301176.06    15.007364 
15510000      1751.09   -709.41584    296123.88     15.10708 
15510500    2023.3791   -726.08245    304491.22    15.165576 
15511000    1899.6902   -749.48252    304881.26    15.415423 
15511500    2178.8263   -750.93622     303227.2    15.437165 
15512000    1982.6792   -744.64736    308662.91    15.312489 
15512500    2169.8328   -748.75521     303873.7    15.355199 
15513000    1842.9057   -753.30167    297095.15    15.431102 
15513500    2081.8475   -757.91151    297080.69    15.490253 
15514000     1973.087   -720.99929    301529.97     15.15051 
15514500    1932.2759   -665.47352    305786.02    14.742212 
15515000    2156.7364   -672.71207    299135.18    14.847434 
15515500    1979.4193   -774.43828    300204.84    15.712963 
15516000     1986.987   -772.43016    294251.22    15.607086 
15516500    2108.3157   -745.05396    299058.52    15.205711 
15517000    1995.1861   -741.11714    297942.75    15.238554 
15517500    2074.9427   -749.42344    298326.56    15.242983 
15518000    2053.0533   -628.52552    331534.97    14.486973 
15518500    1979.5581   -663.84032     305922.4    14.722742 
15519000    1998.0282   -673.74957    309013.26    14.838568 
15519500    2119.4633   -678.72908    301118.14    14.842802 
15520000    2191.1933   -665.64509    294512.86    14.840319 
15520500    2025.1299    -730.6174    301047.34    15.253792 
15521000    2193.5751   -783.37879    319406.19     15.77403 
15521500    1922.6521   -788.31049    300623.29    15.773086 
15522000    2021.6869   -779.81692    306888.34    15.489523 
15522500    1808.6743   -781.88809     295928.8    15.533297 
15523000     1966.986   -792.07717    289891.26    15.573905 
15523500    2016.8484   -787.84316     298533.1    15.533558 
15524000    1979.8287   -784.97277     306710.8    15.469596 
15524500    1898.1315   -784.24587    302998.65    15.509443 
15525000    2039.1292   -781.50053    307058.26    15.481369 
15525500    1751.0963   -703.05037    297662.14    14.968495 
15526000    1949.6134   -702.30035    293678.41    14.933557 
15526500    2013.7767   -670.28392    296933.88    14.833646 
15527000    1911.1753   -690.90822    293572.53     14.92832 
15527500    2058.6809   -695.11314    296857.89     14.90999 
15528000    1889.9387    -664.1997    309232.72    14.731317 
15528500      2007.44    -707.5245    303992.65     15.07381 
15529000    1894.7809   -758.71371    295017.35    15.585028 
15529500    1991.5678   -643.58408    313110.83    14.729609 
15530000    1852.8923   -676.14588    305613.26     14.75839 
15530500    2033.6084   -679.51343    296474.31    14.862694 
15531000    2011.9471   -603.55609     330798.7     14.49658 
15531500    1995.7638   -603.19311    319805.66    14.515446 
15532000    2122.7466   -618.24348     285504.3    14.535382 
15532500    1809.8929   -614.09232    306263.02    14.515763 
15533000    2038.2838    -718.7541    299007.99    15.270093 
15533500    1961.6075   -794.24379    298731.69    15.848466 
15534000    2018.3624   -786.18948    299738.51       15.812 
15534500    1935.9301   -769.78091    306701.66    15.758048 
15535000    2037.5948   -762.46125    304567.03    15.782761 
15535500    2185.9329   -749.29717    301316.75    15.820961 
15536000     1903.129   -712.12903    296149.36    15.601039 
15536500    1957.2383   -645.41316    289273.05    14.964508 
15537000    2002.6031   -666.74159    297546.32    14.930445 
15537500    2083.6013   -645.68903    314542.39    14.803036 
15538000    2064.4992    -730.9516    303125.35    15.341328 
15538500    1881.6227   -760.79762    303492.58    15.472031 
15539000    2120.6781   -756.54008    301869.34    15.465302 
15539500    1851.6735   -740.16221    298519.52    15.186508 
15540000    1966.8948   -628.27553    311921.16    14.509107 
15540500    2175.6682   -613.34977     293778.4    14.534153 
15541000    1955.7714   -635.70488    297329.88    14.603553 
15541500    1935.5536   -759.35855    293683.63    15.467591 
15542000    1798.3191   -746.18891     297849.9    15.470691 
15542500    1910.3304   -771.21522    301519.72    15.797262 
15543000    1935.5264    -770.8658    268345.69    15.924402 
15543500    1988.1134   -767.78012    311612.79    15.790617 
15544000    1920.7942   -774.52614    302385.62    15.835683 
15544500    2012.4476   -759.33923    311562.25    15.800526 
15545000    2082.2733   -753.34319    304003.78    15.858805 
15545500    2086.8389    -753.4613     301345.8    15.818444 
15546000    1845.6678   -666.92693    303811.69    15.148664 
15546500    2023.3639   -747.85403    305829.76    15.721022 
15547000    1922.6873   -754.09395    296934.93    15.668471 
15547500    2206.8009   -769.03851    295368.93    15.770309 
15548000    1971.1888   -775.69304     288408.9    15.879473 
15548500    2030.0023   -779.16458    299603.41    15.866633 
15549000    1845.2127   -778.04464     292034.3     15.86589 
15549500    1998.2022   -764.15708    304725.15    15.812834 
15550000     2137.499   -737.99823     302029.9    15.657942 
15550500     2044.761   -592.68675    304789.92    14.671375 
15551000    2017.7458   -648.82519    296686.45    15.007657 
15551500    1916.4187   -636.18133       301333    15.002606 
15552000    2089.4505    -640.1499    296736.42    15.052867 
15552500    1996.1831   -659.36038    300195.97     15.09836 
15553000    2085.7597   -592.98359    302303.74     14.65052 
15553500    1944.3166    -644.5862    300033.07    15.048665 
15554000    2059.3283   -684.02402    302690.99    15.319125 
15554500    2129.4402   -758.94996    297741.19    15.789481 
15555000    1750.3479   -741.72511     299895.9    15.700687 
15555500    2048.4481   -733.83017     303157.8    15.480091 
15556000    1959.7065   -667.63698    295448.64    14.965563 
15556500    1962.3853   -586.04333    322366.33     14.58822 
15557000    1872.1459   -620.84166     303689.6    14.823669 
15557500    1860.6098   -604.46993    296200.29    14.715635 
15558000    1912.5804   -627.01207    308129.93     14.83158 
15558500    2179.0654   -628.84741    306936.14    14.849938 
15559000    1952.0378   -643.05028    292071.79    14.943287 
15559500    1889.7306   -617.01703    305611.61    14.834718 
15560000    1986.2542   -636.35871    301445.87    15.050481 
15560500    2021.8318   -704.65417    295253.77    15.402117 
15561000    1938.8404   -697.03332     292867.5    15.472719 
15561500    2105.5408   -669.86207    303964.85    15.238991 
15562000    2276.5199   -746.81062    306634.42    15.780255 
15562500    2007.8161    -656.5491    300199.81    15.125032 
15563000     2026.444   -645.77903    297382.66    15.051661 
15563500    2097.0881   -656.29871    295928.23    15.133079 
15564000    2017.4715   -636.94723    301881.09    15.012466 
15564500    2007.9216   -682.54795    300918.61    15.331789 
15565000     2126.103   -724.99516    301796.09    15.587488 
15565500    2145.0557   -594.87968    310521.92    14.701179 
15566000    2141.1932   -639.25944    300572.38    14.906293 
15566500    2075.4735   -635.49795    298102.62    14.905401 
15567000    2101.7529    -659.6155    305958.72    15.150583 
15567500    1796.4651   -720.53294     297127.8    15.699966 
15568000    2034.6638   -717.54531    300994.87    15.887176 
15568500    1973.8011   -710.96425    300372.27     15.80002 
15569000    2005.4182   -729.77224    298805.99    15.781389 
15569500    2252.6634   -715.18187     305669.7    15.796334 
15570000    1872.8656    -725.9909    293000.54    15.858606 
15570500    2106.8059   -726.91193     301476.1    15.708702 
15571000    2006.0664   -673.37239    303947.17    15.297542 
15571500     2058.202   -703.98722    302082.48     15.52317 
15572000    1985.2254   -722.18386    297108.83    15.830815 
15572500    1923.8966   -688.78999    295170.32    15.542915 
15573000    2164.3504   -641.16405    298812.16    15.081408 
15573500    1934.7346    -768.9848    288862.65    15.855226 
15574000    2037.6899   -716.09113    297468.33    15.304643 
15574500    2046.6813   -740.87561    295627.72    15.438393 
15575000    1981.9093   -727.80381    305089.18    15.319339 
15575500    1894.1094   -737.43607    299289.71    15.465877 
15576000    2073.9376   -758.27587    301954.07    15.671052 
15576500    2020.1505   -741.28618    299440.14    15.567503 
15577000    1928.7332   -761.63226    298851.05    15.699199 
15577500    1817.1765   -761.55438    293697.18    15.654236 
15578000     2027.799    -726.8351    307948.44    15.230246 
15578500    2034.3931   -755.66308    297817.04    15.561675 
15579000    1923.8078   -719.86337    304548.91    15.212281 
15579500     1858.429   -583.70163    293609.54    14.622022 
15580000    1955.0491   -611.35518    301664.01    14.801544 
15580500    2193.7019   -631.19297    307445.02    14.895834 
15581000    1884.8257    -651.8711    299061.44    15.098649 
15581500    2150.4612   -680.07286    302250.61    15.410862 
15582000     2043.941   -650.57912    298923.47    15.186266 
15582500    2193.4691   -603.29972    301270.98    14.805087 
15583000    1938.8553   -684.86887    295763.44    15.453305 
15583500    1930.6535   -707.72537    298261.06    15.698989 
15584000    1875.2226   -672.43157    295204.29    15.373528 
15584500    2093.9745   -636.26525    297483.01    15.101559 
15585000    2003.7514   -732.24441    302594.67    15.630861 
15585500    1908.9301   -757.56863    298828.67    15.736051 
15586000    2024.0741   -748.24228    299644.72    15.586939 
15586500    1902.9872   -752.65291    301677.12    15.696034 
15587000    2080.1067   -766.04268    297961.06    15.850552 
15587500    2073.9275   -715.79657    303175.37    15.309132 
15588000    2231.2485   -598.02805    308448.44    14.574574 
15588500    1929.8205   -559.92904    323655.18    14.534382 
15589000    1830.5342   -572.64257    295548.91    14.590789 
15589500    2064.9069   -633.25904    299051.05     14.85333 
15590000    1982.1371   -625.30741    295743.87    14.866178 
15590500    1930.1848   -633.50527    290231.51    14.877446 
15591000    2098.3688   -633.37197     299377.8    15.023438 
15591500    2018.2183   -670.30044    295012.32     15.44646 
15592000    2002.6287   -699.99844    300571.06    15.639593 
15592500    1881.4419   -697.54198    303829.45    15.507672 
15593000    2071.0585   -621.25839    298292.82    15.134773 
15593500    2007.3206   -604.03855    295980.67     15.07224 
15594000    1916.3484   -616.42165    302381.48    14.970917 
15594500    2009.4556   -662.67552    301712.23    15.193779 
15595000    1974.4894   -736.23499     303321.5    15.754076 
15595500    2019.4936   -664.55536    310840.97     15.25643 
15596000    2000.3183    -612.7029    300377.06    14.929316 
15596500    2201.6314   -612.52562    310091.63    14.879286 
15597000    1846.8053   -694.58496    296287.04    15.318458 
15597500    1988.9931    -662.3362    298251.48    15.285105 
15598000    1942.3063   -706.45166    301911.33    15.593368 
15598500    2044.0253   -732.59455    301154.67    15.875477 
15599000    1842.4298   -712.75328    301240.72    15.774808 
15599500    1932.0978    -669.8295    302885.91    15.395616 
15600000    1996.9897   -714.78835    298629.92    15.552661 
15600500    1947.3318   -710.90618    300438.61    15.685912 
15601000    1970.8625   -638.93519    307362.49    15.140903 
15601500    2047.3876   -597.97765    317403.83    14.771303 
15602000     2075.741   -711.06134    302119.48    15.610927 
15602500    2042.3773   -755.14212    299777.45    15.947537 
15603000    2181.0939   -769.82813    294497.04    15.953433 
15603500    2154.6246   -747.07264    302499.19    15.630678 
15604000    2098.4153   -770.08588    301515.34    15.798179 
15604500    1863.0826   -701.69505    301861.69    15.310675 
15605000    2054.0936   -636.20336    303409.14    15.016824 
15605500    1794.5096   -609.36075    300119.54    14.801963 
15606000    2143.9407    -594.0511    296617.82    14.634673 
15606500    2015.0141   -647.80399    297366.61    14.987746 
15607000    1978.1445   -670.83661    299378.17    15.377673 
15607500    2059.8338   -702.41472    298920.75    15.637482 
15608000     1993.729   -699.32953    298997.42    15.658407 
15608500    1816.0269   -629.26638     298483.8    15.043812 
15609000    1979.8195   -581.76664    293665.61    14.656977 
15609500    2189.8514   -556.54573    294414.68    14.634467 
15610000    1913.5574   -562.68339    287078.59    14.594251 
15610500    1924.0426   -549.71719     313747.6    14.532728 
15611000    2016.4708   -550.99029    339989.84    14.546659 
15611500    1995.0845    -555.2236    320507.14    14.553146 
15612000    2010.5363   -560.72572    295167.85    14.570634 
15612500    2039.0218   -557.40737    318729.47    14.536366 
15613000    2048.4223   -566.33284    297462.98    14.553886 
15613500    1858.2866   -642.80195    299459.57    14.829508 
15614000    1804.0157   -638.69759    296127.14    14.897767 
15614500     2035.816   -657.62517    305519.43     14.87992 
15615000    2128.8954   -654.92276    302714.21    14.908821 
15615500    1821.3957   -655.82602    291033.47    14.927901 
15616000    1860.9275   -668.04794     298643.3    14.905652 
15616500    1968.9545   -629.25226    304454.38    14.679299 
15617000    1829.2391   -691.83351    296417.29    15.055378 
15617500    1770.3373   -608.72476    295524.14    14.645824 
15618000    1981.6509   -713.07315    306092.12    15.260424 
15618500    2088.5898   -731.02011    301310.67    15.359728 
[...]
29848000    1899.1861   -746.78368    295399.02    15.180296 
29848500    2003.7381   -737.74583    306482.12    15.063142 
29849000    2009.7667   -729.22885       307125    15.032935 
29849500    2115.1128   -735.78805    304115.65    15.103447 
29850000    2087.1578   -740.94489    296260.68    15.151997 
29850500    1911.7552   -751.81801    294946.29    15.181834 
29851000    2060.7613   -741.32091    301152.66    15.129518 
29851500    1998.6184    -741.8778    299516.07    15.144746 
29852000    2028.2117   -741.06729    306647.43    15.136508 
29852500    2145.6287   -738.77157    306754.88    15.141664 
29853000    2182.1021   -751.24056    295554.48    15.217543 
29853500    2146.0169   -754.12954    287044.67    15.241517 
29854000    2059.7427   -763.07997    280792.83    15.328603 
29854500    1964.3502   -748.70949    302635.29    15.159401 
29855000    2008.0377   -733.51591    304659.36    15.098594 
29855500    2092.5202   -741.85684    300370.86    15.108412 
29856000    1963.2751   -746.01056    299758.33    15.169603 
29856500    2058.5534   -759.64198    285630.44    15.286585 
29857000    1951.7535   -750.83005    293695.49    15.185918 
29857500    1954.4535   -732.22637    301338.47    15.055391 
29858000    2010.4324    -726.6367    307648.24    15.032711 
29858500    2007.9171   -738.62693    306363.58     15.09202 
29859000     1885.112   -741.21715     300360.1    15.176264 
29859500    2030.2652   -751.43323    294249.64    15.227513 
29860000    2056.5177   -747.06253     297181.5    15.161926 
29860500    2103.9573    -722.5042    309091.17    15.014402 
29861000    1972.6247   -729.18931    306118.99    15.020713 
29861500    1838.2087   -740.36837    303143.59    15.092198 
29862000     2002.439   -745.87678    301719.97    15.158221 
29862500    2151.9612   -738.97233    303959.42    15.163627 
29863000    2055.1599   -748.91912    295595.64    15.198544 
29863500    1983.0973   -737.64566    307066.04    15.076063 
29864000    1933.7516    -724.6244    304157.26    15.028676 
29864500    1917.4276   -727.83117    307488.78    14.986167 
29865000    2012.8767     -739.357    304767.86     15.07883 
29865500    2009.1176   -742.06965    303240.74    15.121025 
29866000    1957.6212   -746.27963    297434.01    15.222599 
29866500    1939.5376   -751.91463    290956.87     15.20155 
29867000     1962.873   -745.65577    299435.36    15.135565 
29867500    1966.6581   -740.74531    302474.65    15.110641 
29868000    1815.4901   -741.57502    302776.27    15.117802 
29868500    1954.1362   -756.66669    286682.51    15.252708 
29869000    2124.3369   -768.74798    285177.25    15.410089 
29869500    1895.1665   -754.35485    287958.96    15.232442 
29870000    1922.8883   -741.82184    298908.43    15.142915 
29870500    1925.5305   -741.97677    295040.64    15.152643 
29871000    2085.0699   -747.79795    297687.23    15.183299 
29871500     1951.729   -739.82709    300364.77    15.152685 
29872000    1957.0668   -748.82755     297541.2    15.195329 
29872500    1868.6653     -735.149    303960.73    15.085264 
29873000    2076.8616   -723.27236    301833.55    15.012718 
29873500    2026.3486   -723.50456    305072.66    15.019123 
29874000    2017.9463   -740.49986     302383.8    15.099734 
29874500    2068.9467   -745.08894     293495.6    15.216924 
29875000    2006.5838   -754.64074    285385.83    15.267204 
29875500    2051.1684   -749.05143    294196.41    15.223008 
29876000    2111.9828   -739.38951    304809.33     15.14418 
29876500    2135.1695   -746.20761    293449.48    15.226258 
29877000    1933.4751   -740.93256    304354.53    15.113494 
29877500    2137.8409   -746.69812    298502.79    15.144178 
29878000    1954.9022   -749.76775    295765.97    15.153531 
29878500    2087.1115   -735.30428    304697.84     15.10787 
29879000    1874.4164   -733.37631    305437.46    15.074469 
29879500    2090.6653   -743.12801    298628.71    15.126595 
29880000    1921.3297   -754.17774    288352.54    15.229291 
29880500    1844.3016   -741.43249    297611.47    15.145166 
29881000    1834.7597   -721.53159    303166.55    15.014991 
29881500    2064.0399   -726.47937    307582.64    15.024884 
29882000    1958.3489   -729.37431    307984.08    15.044574 
29882500    2086.4835   -742.37449    302650.63    15.140361 
29883000    1905.7207   -755.26442    287515.49    15.221834 
29883500    1969.3125     -748.073    295080.26    15.205887 
29884000    2180.4133   -742.65802     302412.5    15.136495 
29884500    2068.5868   -745.17186    302570.02    15.133075 
29885000    1977.6886   -736.17539    308792.21    15.052532 
29885500    2016.3025   -738.29838    305696.01    15.082378 
29886000    2073.6118    -742.7482    302833.22    15.121204 
29886500    2020.1035   -751.85245    292362.45    15.207858 
29887000    1936.4554   -752.87026     289238.4     15.20465 
29887500    1820.5075   -736.49185    302113.86    15.060931 
29888000    2020.0572    -731.3192    308554.81    15.063073 
29888500    2064.7646   -739.71355    305147.05    15.121429 
29889000     1987.854   -750.02113    294402.39    15.180236 
29889500    1896.7486    -737.1774    302762.46     15.11985 
29890000    2084.2308   -734.67415    300985.76    15.141268 
29890500     1948.899    -742.1465    302905.48     15.12253 
29891000    1934.1046   -751.77501    293638.41    15.203966 
29891500    2144.2058   -746.98984    303383.21     15.14089 
29892000     2162.617   -738.06564    308165.47    15.099779 
29892500    1947.7568   -740.98236    299518.61    15.128318 
29893000    2073.0487   -753.35549    292527.35    15.211088 
29893500    2005.8195    -730.8726    304305.16    15.026378 
29894000    2058.9164   -723.40649    304790.69     14.99207 
29894500    1984.7691   -731.11972    305690.13    15.049639 
29895000    2020.3395   -741.41279    300354.02    15.135536 
29895500    2068.6785   -739.75444     299565.6    15.163767 
29896000    1978.7362   -751.94419    292831.39    15.193656 
29896500    1925.0038   -754.10345    286938.67    15.228791 
29897000    1876.5922   -736.33242       301498    15.108867 
29897500     2098.221   -737.90725    303647.99    15.111954 
29898000    2192.3455   -741.31506    300665.22    15.127229 
29898500    2171.9028   -736.35109    305892.21    15.116462 
29899000     1938.293   -742.18313    295991.33    15.140483 
29899500    1913.0289   -746.40487       292202    15.220961 
29900000     1874.921   -756.42849    284842.23    15.274222 
29900500    2007.2716   -753.73057    291547.56    15.227342 
29901000     2045.282   -738.21657       308609    15.089346 
29901500    2076.6088   -731.21024    302231.63    15.069206 
29902000    2036.4418   -745.31743    299351.21    15.147684 
29902500     1925.653   -753.34724    287565.41    15.221761 
29903000    2164.4633   -746.05614    301405.12    15.175356 
29903500    2024.7061   -741.11194     299697.4    15.159675 
29904000    1984.8769   -734.86383    303789.34    15.091714 
29904500    2124.4107   -743.65043    302291.61    15.169811 
29905000    1981.8044   -756.37668    287051.15    15.225664 
29905500    2050.3294   -747.30447    294789.28    15.170513 
29906000     2004.474   -740.00846    305989.73    15.113804 
29906500    1877.1436   -739.36741     297274.3    15.142285 
29907000     2087.133   -748.99864    299643.07     15.20164 
29907500    1972.1773   -747.55209    294214.43    15.198736 
29908000    2154.8485   -750.85576    297691.87    15.226417 
29908500    2091.4636   -741.13448    300797.63    15.146569 
29909000    2070.6334   -740.78187    303454.41    15.133559 
29909500    1885.1711   -741.92831    302923.52    15.110344 
29910000    2003.4914   -728.67243    313282.79    15.018037 
29910500    1979.7744   -731.27712    306957.23    15.071833 
29911000    1983.3294   -744.74573    298632.07    15.148395 
29911500    1895.9368   -747.74047    298495.77    15.158259 
29912000     1917.527   -743.44931    297195.33     15.15705 
29912500    1957.7503   -740.31101    304065.18    15.095241 
29913000      2210.46   -745.42438    299573.41    15.181818 
29913500     2040.018   -757.87967    285836.32    15.268547 
29914000    1899.2555   -759.30409    285866.38    15.286063 
29914500     1809.703   -746.59258    290350.96    15.175889 
29915000    2046.3939   -747.07207    297956.06    15.171317 
29915500    1880.3813   -743.82994    300526.62    15.138742 
29916000    1898.4976   -730.56813     307783.1    15.054978 
29916500    2077.5639   -736.58705    305502.08    15.065324 
29917000     1945.891   -757.42461    285718.96    15.215659 
29917500    2109.0716   -757.68038    285725.16    15.260136 
29918000    2118.3271   -748.66585    299122.16     15.20858 
29918500    2041.4035   -745.41782    300624.49    15.141184 
29919000    1964.8239   -740.68945    298310.15    15.138191 
29919500    1860.3111   -746.19939    300326.98    15.172213 
29920000    2153.4005   -747.89698    299600.51    15.156744 
29920500    2092.9309   -725.30328    309307.86    15.002569 
29921000    2073.9255   -724.19273    304313.52    15.027415 
29921500    1955.1915   -740.00368     306102.5    15.098368 
29922000    1939.1938   -746.65897    297892.57    15.178494 
29922500    2013.0253   -744.14126     303752.4    15.138279 
29923000     1967.671   -734.53064    302667.99    15.103558 
29923500     1966.958    -708.5148    308750.87    14.910969 
29924000    1965.5596   -706.69147    313172.58    14.910761 
29924500    2013.8945   -732.55307    303003.79    15.110603 
29925000    2181.0308   -749.08509    297435.42    15.166683 
29925500    1928.9421    -754.6032     289083.6    15.206502 
29926000      2106.54   -751.94168    293311.75    15.219968 
29926500    2035.6215   -741.22186    303310.32    15.114642 
29927000    1969.6209   -732.27152    305374.89    15.063371 
29927500    1998.2019   -744.71943    296477.29    15.183181 
29928000    2095.2355    -746.0266    290761.67    15.205185 
29928500     2132.233    -739.0873    296836.58    15.123203 
29929000    2115.6163    -718.3335    309425.91    14.984674 
29929500    2064.0486   -732.82019    306786.35     15.04407 
29930000    2112.0918   -747.51084     299263.1    15.126171 
29930500    2120.2736   -743.36466    298915.59    15.148677 
29931000    2142.3403    -729.4054    307479.24    15.061041 
29931500    1969.3888   -739.04721    306002.25    15.108311 
29932000    2148.8886   -743.54687    302105.81    15.135152 
29932500    2073.0175   -754.26652    291428.23    15.258324 
29933000    1892.1423   -752.05493    290769.54    15.222212 
29933500    2054.3791   -739.29127    304371.85    15.106914 
29934000    1911.4157   -739.14102    297763.09    15.157531 
29934500    2027.6376   -744.59227    292383.24    15.208426 
29935000    1974.9928   -738.64065    302640.83    15.089783 
29935500    2207.5895   -722.37427    309601.51    14.956913 
29936000    2069.6579   -736.03687    307114.99    15.074445 
29936500    2006.5821   -754.78749    289638.98    15.183168 
29937000    2193.4851   -750.22512    294149.16    15.219211 
29937500    2014.8982    -737.9364    301959.13    15.080136 
29938000    1810.3687   -742.25036    297841.62    15.140991 
29938500    1970.9586   -746.82138    297849.66    15.162875 
29939000    1958.8043   -744.98028    298830.27    15.151767 
29939500    1953.4377   -728.08979     307387.1    15.045515 
29940000     1911.863   -725.38934    307778.32    14.996765 
29940500    2018.1641   -741.45002    299232.31    15.135064 
29941000    1981.0089   -745.28136    295034.14    15.194215 
29941500    1977.3989   -744.14067    300605.44    15.171728 
29942000     1945.582   -743.14691    302974.52    15.098785 
29942500    1858.1577   -730.93581    310593.62     15.03621 
29943000    2054.9402   -720.78049    313223.96    14.965393 
29943500    2103.0805   -723.33259    308908.04    14.998426 
29944000    2345.5846   -745.85832    297474.46    15.175988 
29944500     2157.821   -749.52858    299550.12    15.213189 
29945000    1899.6545   -739.27777    303021.59     15.14448 
29945500    2013.4698   -726.54965    306369.77    15.052555 
29946000    2001.0616   -717.50377    309812.85    14.984443 
29946500    1920.4522   -730.98715    299378.66    15.037971 
29947000    1872.8938    -743.3897    297137.71    15.171525 
29947500    1942.1476   -748.26882    293992.15    15.167317 
29948000    2218.0018   -743.16424    305396.66    15.135623 
29948500    2183.7828   -748.67306    296730.71    15.180823 
29949000    1969.1975   -742.15734    296555.04    15.173594 
29949500     2083.405   -740.85505    302810.36    15.149141 
29950000    2225.4722   -748.55054    303720.93    15.153502 
29950500    1874.8888   -753.12846    292881.11    15.201773 
29951000    1874.1219   -758.09647    282212.92    15.324463 
29951500    1852.7016   -747.63985    295386.79    15.215595 
29952000    1936.9324    -745.2484    295282.02    15.149467 
29952500    2058.4916   -732.37434    309032.91    15.054057 
29953000     1726.765   -735.92207    299043.82    15.101051 
29953500    1870.0362   -745.57044    296904.05    15.152621 
29954000    2149.9997   -740.25178    306010.14    15.107214 
29954500     1905.555   -722.21449    305696.85    15.004916 
29955000     1916.457   -730.57023     310186.2     15.02635 
29955500    2235.4726   -745.46105    302390.65    15.119436 
29956000    1880.7187   -744.96277    294664.13    15.161728 
29956500    2276.8424   -743.16846    303857.82    15.117557 
29957000    1942.9458   -744.65486    297085.34    15.166456 
29957500    2071.3684   -755.05593    290007.38    15.229836 
29958000    2137.2167   -745.23671    303057.95    15.140782 
29958500    1937.6641   -734.20789    303603.07     15.07521 
29959000    1933.8204   -740.23392    300448.81    15.095669 
29959500    2025.4922   -752.92929    287954.28    15.274306 
29960000    1861.6655   -758.79664    283683.58    15.322444 
29960500    1935.5961   -761.48095    282649.72    15.272044 
29961000    2005.2318   -745.39883    298963.38    15.167456 
29961500    2193.2085   -743.18652    305104.36    15.123346 
29962000    1966.8831   -735.78119    304694.19     15.06848 
29962500    1937.5489   -735.24674    304758.47    15.082445 
29963000    1994.3817   -742.16565    296804.38    15.184885 
29963500    2113.7736   -749.35373    296879.94    15.203547 
29964000     1948.992   -749.44074    292351.86    15.214602 
29964500    2151.6616   -743.14382    297350.28    15.173374 
29965000    2040.1306   -748.79902    297288.12    15.167131 
29965500    1875.3035   -737.10349    304563.97     15.08081 
29966000    2015.5664   -731.05553    305940.12    15.038489 
29966500    2055.8471   -746.02197    299061.94     15.13746 
29967000    2125.7839   -756.64443    287095.94    15.246998 
29967500    2103.2654   -756.04469    288955.95    15.259753 
29968000     2125.923   -747.88624    295672.92    15.202488 
29968500    2129.7914   -741.56331    303272.54    15.124074 
29969000     1979.209   -747.53018    298609.19    15.121838 
29969500    1935.3704   -727.55765    306640.71    15.034896 
29970000    2004.1718   -719.85733    308705.75    14.950678 
29970500    1963.5326   -723.82926    309771.84    15.005674 
29971000    2021.9954   -743.88606    303019.24    15.155751 
29971500    2020.9964   -746.78942    299804.22    15.121134 
29972000    1799.7052   -745.72724    294574.15    15.138391 
29972500    1923.7754   -737.61504    304150.63    15.090367 
29973000    2216.9474   -733.40269     311825.7    15.059014 
29973500     1927.593    -733.7646    307218.21    15.061173 
29974000    2035.1135   -751.91651     293831.9    15.167113 
29974500    1962.1423   -730.31036    301110.75    15.064736 
29975000    1934.0774   -722.33346    309544.91    14.992858 
29975500    1996.7196   -724.28735    308235.91    15.022423 
29976000    2003.2029   -734.54412    303848.76    15.070413 
29976500    2118.2802   -743.12356    299477.59    15.170656 
29977000    2199.3065   -755.65233    284541.98    15.277267 
29977500     1973.697   -750.13824    293139.12    15.190864 
29978000    1922.1228   -733.59023    304339.89    15.073514 
29978500    1978.5568   -731.09244    306832.26    15.060298 
29979000    2000.1374   -740.78953    305098.78    15.116128 
29979500    1747.3569   -745.52549    297631.07    15.183931 
29980000    2042.2574   -736.13637    308434.57    15.122826 
29980500    1966.1966   -746.84448    298118.69    15.154366 
29981000    1853.1805   -736.02558    301812.99    15.093772 
29981500    2109.4385   -732.58347    311256.95    15.045195 
29982000    2209.6062    -721.8827    311062.06    14.981847 
29982500    2169.2589    -737.6524    308170.15    15.117301 
29983000    1982.1783   -751.96975    294404.26    15.184996 
29983500    1940.4448   -758.31352       287935    15.239649 
29984000     2218.751   -745.57897    304073.04    15.170027 
29984500    1962.7666   -733.75626    308738.46    15.051333 
29985000    1885.2586   -732.40985    308924.31    15.032265 
29985500    1911.6716   -738.59791    307520.29    15.095318 
29986000     1947.545   -738.67699    305071.14     15.09296 
29986500    1919.4405   -749.11367    290437.51    15.214975 
29987000    1947.6735   -751.29169    292856.15    15.178335 
29987500    2173.3051   -740.55964    309202.43    15.092622 
29988000    2049.4691   -728.45704    304089.12    15.037174 
29988500    2168.7837    -721.4628    313607.55    14.964774 
29989000     2033.506   -716.38536    307547.49    14.979572 
29989500    1956.5578   -746.82067    293977.92    15.186438 
29990000    1999.5866   -751.04911     294646.9    15.170557 
29990500    2042.8202   -738.11387    305614.34    15.088937 
29991000    2155.9514   -718.90915    303614.77    14.974272 
29991500    1966.3456   -728.03211     310949.1    15.015314 
29992000    1821.0706    -741.5918    298666.53    15.147927 
29992500    1980.1502   -749.03665    294727.52    15.211461 
29993000    2002.3814   -736.31744    303530.48    15.134685 
29993500    2092.4108   -735.24321    303909.83    15.138523 
29994000    1820.8286   -743.97183    301658.92    15.137838 
29994500    2022.1316   -755.88871    288919.14    15.238902 
29995000    1990.3043   -738.61711    306646.32    15.086966 
29995500    1845.1477   -724.88477    305590.41    14.989195 
29996000    2001.8252   -732.70608    303083.67    15.075625 
29996500    2140.7397   -749.66813    295738.22    15.177122 
29997000    1927.3587   -744.66137    299906.17    15.152912 
29997500     1738.922   -730.11357    302633.15    15.046123 
29998000    1853.3734   -718.19069     301623.7    14.968665 
29998500    2034.7926   -730.98556    308734.01    15.090068 
29999000     1858.348   -739.88501    302747.91    15.124632 
29999500    2186.5397   -747.17742    299090.94    15.164887 
30000000    2056.0279   -749.72128    294922.83    15.184762 
Loop time of 61909.5 on 6 procs for 15000500 steps with 256 atoms

Performance: 41.869 ns/day, 0.573 hours/ns, 242.297 timesteps/s
99.2% CPU use with 6 MPI tasks x no OpenMP threads

MPI task timing breakdown:
Section |  min time  |  avg time  |  max time  |%varavg| %total
---------------------------------------------------------------
Pair    | 3860.4     | 3973.7     | 4083.6     | 109.5 |  6.42
Neigh   | 98.842     | 102.32     | 106.89     |  26.3 |  0.17
Comm    | 884.43     | 989.15     | 1107.7     | 224.7 |  1.60
Output  | 438.98     | 439        | 439.09     |   0.2 |  0.71
Modify  | 56341      | 56350      | 56358      |   2.3 | 91.02
Other   |            | 55.17      |            |       |  0.09

Nlocal:    42.6667 ave 44 max 40 min
Histogram: 1 0 0 0 0 1 0 2 0 2
Nghost:    1165 ave 1189 max 1150 min
Histogram: 2 0 1 1 0 0 1 0 0 1
Neighs:    3609.5 ave 3726 max 3408 min
Histogram: 1 0 0 0 1 0 1 1 0 2

Total # of neighbors = 21657
Ave neighs/atom = 84.5977
Neighbor list builds = 684836
Dangerous builds = 1

write_data	data.final
Total wall time: 17:11:55
