LAMMPS (8 Feb 2019)
Processor partition = 3
echo both

include		in.partitions
variable p_id world   0 1 2 3 4 5
include		in.temp
variable	temperature equal 2000.
variable	tempDamp equal 0.1 # approx 0.1 ps
include		in.pressure
variable	pressure equal 300000.
variable	pressureDamp equal 1.0
include 	in.seed
variable	seed world 74581 93734 128321 21934 495716 871038
units		metal
include		in.box
read_data	data.equil.${p_id}
read_data	data.equil.3
  orthogonal box = (0.458751 0.458751 0.458751) to (15.7252 15.7252 15.7252)
  1 by 2 by 3 MPI processor grid
  reading atoms ...
  256 atoms
  reading velocities ...
  256 velocities

variable 	mass equal 26.981539
mass            1 ${mass}
mass            1 26.981539
include 	in.setup
variable	out_freq equal 500
variable	out_freq2 equal 500

neigh_modify    delay 10 every 1
include		in.al
### Argon Potential Parameters ###
pair_style 	eam/alloy
pair_coeff 	* * Al99.eam.alloy Al

timestep	0.002 # According to Frenkel and Smit is 0.001

thermo          ${out_freq}
thermo          500
thermo_style 	custom step temp pe press lx


restart 	${out_freq} Restart.lmp.${p_id} Restart2.lmp.${p_id}
restart 	500 Restart.lmp.${p_id} Restart2.lmp.${p_id}
restart 	500 Restart.lmp.3 Restart2.lmp.${p_id}
restart 	500 Restart.lmp.3 Restart2.lmp.3



# NPT

include		in.dump
dump            myDump all atom ${out_freq2} dump.al.${p_id}
dump            myDump all atom 500 dump.al.${p_id}
dump            myDump all atom 500 dump.al.3
dump            myDcdDump all dcd ${out_freq2} out.${p_id}.dcd
dump            myDcdDump all dcd 500 out.${p_id}.dcd
dump            myDcdDump all dcd 500 out.3.dcd
dump_modify	myDump append yes
dump_modify     myDcdDump append yes


timer 		timeout 23:50:00 every 1000
New timer settings: style=normal  mode=nosync  timeout=23:50:00

fix             1 all plumed plumedfile plumed.start.dat outfile plumed.out.${p_id}
fix             1 all plumed plumedfile plumed.start.dat outfile plumed.out.3
fix             2 all nph iso ${pressure} ${pressure} ${pressureDamp}
fix             2 all nph iso 300000 ${pressure} ${pressureDamp}
fix             2 all nph iso 300000 300000 ${pressureDamp}
fix             2 all nph iso 300000 300000 1
fix             3 all temp/csvr ${temperature} ${temperature} ${tempDamp} ${seed}
fix             3 all temp/csvr 2000 ${temperature} ${tempDamp} ${seed}
fix             3 all temp/csvr 2000 2000 ${tempDamp} ${seed}
fix             3 all temp/csvr 2000 2000 0.1 ${seed}
fix             3 all temp/csvr 2000 2000 0.1 21934
fix		4 all momentum 10000 linear 1 1 1 angular

run             15000000 upto # 30 ns
Neighbor list info ...
  update every 1 steps, delay 10 steps, check yes
  max neighbors/atom: 2000, page size: 100000
  master list distance cutoff = 8.28721
  ghost atom cutoff = 8.28721
  binsize = 4.1436, bins = 4 4 4
  1 neighbor lists, perpetual/occasional/extra = 1 0 0
  (1) pair eam/alloy, perpetual
      attributes: half, newton on
      pair build: half/bin/atomonly/newton
      stencil: half/bin/3d/newton
      bin: standard
Per MPI rank memory allocation (min/avg/max) = 4.005 | 4.07 | 4.382 Mbytes
Step Temp PotEng Press Lx 
       0    1810.3241   -759.36885    277067.35    15.266498 
     500      1935.02   -737.40022    310008.91    15.185637 
    1000    1994.4643   -747.64677    300011.79    15.204124 
    1500    1981.5878   -739.34533    304290.14    15.204302 
    2000    2137.8568   -732.16391    311079.12    15.189421 
    2500    1968.3449   -734.90397    307919.71    15.181301 
    3000    1839.4292   -743.80929    294255.28    15.285127 
    3500    1848.6374   -724.89585    312829.87    15.147962 
    4000    1907.5116   -732.39345    290178.15    15.284734 
    4500    2058.3865   -736.20408    298347.66     15.26301 
    5000    2183.1819    -728.7061    303589.03    15.258405 
    5500    2044.6246   -733.92954    292805.93    15.295409 
    6000    1998.4233   -738.35585     299820.8    15.282479 
    6500    2031.9064    -721.5845    299593.43    15.233214 
    7000    2055.1281   -757.58022    293469.16     15.43094 
    7500    1884.6479   -745.48935    284644.41    15.415127 
    8000    1940.7388   -704.93238    302566.86    15.054585 
    8500    2216.6016   -713.84948    304224.37    15.123096 
    9000    1937.9076   -705.44097    300088.33    15.068591 
    9500    2126.3945   -746.78676    308276.71    15.200731 
   10000    1860.3207   -772.31896    294947.77     15.41684 
   10500    1979.3146   -768.34696    299758.34    15.399478 
   11000    2102.4558   -771.14562    297530.95    15.443832 
   11500    1970.1614   -771.51819    301862.58    15.373067 
   12000    2046.1058    -774.9114    295579.15    15.412105 
   12500    1917.3397   -757.17272    311115.57    15.428243 
   13000    1881.4022   -766.62917    292506.49    15.490377 
   13500    2008.9737   -762.23929     309232.7    15.461955 
   14000    2027.9822   -767.03383    293141.77    15.502897 
   14500    2009.3164   -715.83215    296971.47    15.287345 
   15000    2010.7029   -691.17484    305257.73    15.139698 
   15500    2151.0487   -686.61124    314286.88    15.003678 
   16000    2024.5316   -694.16019    301536.47     15.00958 
   16500    1914.7549   -682.91477    307634.98    14.973671 
   17000    2088.8849   -694.27609    298733.46    14.977469 
   17500    2135.0181   -680.60293    314396.06    15.011348 
   18000    2012.4258   -720.05354    299959.39    15.267646 
   18500    2207.4401   -679.64436    310496.59    15.052976 
   19000    2126.1405   -693.69898    300562.34    15.086964 
   19500    1961.6016   -681.47204    306880.96     14.99225 
   20000     1988.954   -739.41291     289702.1    15.453016 
   20500    1903.9611   -689.12303    298671.27    15.085711 
   21000    1918.5468   -686.88107    294531.16    15.103672 
   21500    2189.3968   -687.87229    284674.72    15.043325 
   22000     2110.526   -682.44269    298701.25    15.033968 
   22500    1932.1795   -653.64791    316136.04    14.969659 
   23000    1863.1965   -647.12045    316965.34    14.960482 
   23500    2113.3835    -666.1742    294284.05    15.055218 
   24000    2130.1994   -660.39684    302007.86    14.974013 
   24500    1888.0711   -668.08234    278053.44    15.082907 
   25000    2115.4302   -652.98905    319879.06    14.972872 
   25500    2065.8014   -666.85171    291307.72    15.036288 
   26000    1931.1462    -655.1996    298594.49    15.020957 
   26500    2101.5866   -658.57322    292892.51    15.009195 
   27000    2111.0786   -640.89925    336931.11     14.91317 
   27500    1842.4991     -647.659    309797.45    14.989559 
   28000      2010.99   -649.76619    304576.24    14.988645 
   28500    2019.8478   -653.87344     305037.9     14.96688 
   29000    2035.5499   -667.39607    292413.11    14.983098 
   29500    1890.6825   -665.48542    286897.25    15.008625 
   30000     1877.327   -652.98937    312824.01    14.916958 
   30500    1920.4087   -661.22828    285612.58    15.005872 
   31000    1998.6208   -651.37883    308971.69    14.977757 
   31500     1967.822   -662.30854    293590.52    15.012838 
   32000    2079.8375   -660.76864    290098.23    14.969588 
   32500    1989.8377   -654.88497    304859.51    14.925378 
   33000     1972.616   -651.04451    315567.77    14.874063 
   33500    1976.2992    -660.5669    297318.36    14.945045 
   34000    2103.9313   -657.12944     305032.6     14.89944 
   34500    1860.0527   -647.34966    316779.09    14.875409 
   35000    1901.4832   -662.18167    302855.78     14.85207 
   35500    2102.4956   -654.97296    299654.49    14.972237 
   36000    2030.0369   -646.44907    309353.74    14.926797 
   36500    2014.2485   -651.12849    292573.82    14.949664 
   37000     2128.779   -650.21017     302730.9    14.964693 
   37500    1913.6944   -665.95846     282159.6    15.063114 
   38000    1888.0399   -655.83925    295738.47     14.94388 
   38500    2183.6523   -649.51396     310383.2    14.927808 
   39000    1842.7716   -663.86053    285718.66    14.985135 
   39500    1981.6343   -658.78381    294904.41    14.952304 
   40000    2105.4247   -652.69329    306064.03    14.857528 
   40500    2069.8602    -657.3585    300203.18    14.869129 
   41000    1960.7318   -660.54408    296390.31    14.908129 
   41500    1913.3752   -647.55747    310430.23    14.832267 
   42000    2099.0978   -654.98675    298949.18    14.875323 
   42500    1888.6938   -660.70599     288069.4    14.923753 
   43000    2070.5826   -658.94591    287408.22    14.909011 
   43500    2077.3312   -649.74733    299572.36    14.829763 
   44000    1838.3937   -648.99537    307707.01     14.82108 
   44500    2097.3948   -647.76569    315994.47    14.828937 
   45000    2069.8646   -659.33009     299557.3    14.875822 
   45500    1949.5232   -647.96535    296619.45    14.871933 
   46000    2028.1776   -660.41477    299480.56      14.8694 
   46500    2029.2071   -666.86593     300102.9    14.897377 
   47000    2106.7886   -665.61165    295994.49    14.917989 
   47500    2051.5519   -658.81687    298233.22    14.899442 
   48000    1944.7157   -650.11047    301152.15     14.88362 
   48500    1920.4646    -656.1453    288574.25     14.88815 
   49000     2094.478   -657.86756    289611.01    14.875701 
   49500    2042.1004   -653.15271    315577.38    14.792064 
   50000    2141.9251   -662.89629    294367.75      14.8724 
   50500    2074.9477   -638.08549    306931.93    14.822065 
   51000    1872.3683    -651.9815    306850.67    14.795201 
   51500    1828.2962   -647.93495    314088.68    14.793464 
   52000    2060.4206    -664.6463    298846.79    14.865005 
   52500    1888.9332   -665.50605     282153.4    14.866581 
   53000    2142.4236   -661.74157    307359.81    14.824729 
   53500    1909.1145   -675.83028    293000.37    14.885304 
   54000     1853.513    -673.5229    292290.56    14.948487 
   54500     2014.518   -672.10286    287052.06     14.92496 
   55000    2000.9803   -659.72419    282860.18    14.868003 
   55500    1932.8855    -678.5004    286353.97    14.907558 
   56000     1852.987   -665.44303    290230.17    14.832134 
   56500    1976.2825   -667.39824    300242.39    14.836263 
   57000    2023.4312   -666.38711    288870.46    14.863919 
   57500    2096.4032   -661.21167    300875.86     14.81744 
   58000    2061.4058   -642.72463    313416.65    14.815584 
   58500    2050.0748   -665.55394    319764.73    14.805169 
   59000    2058.0196   -669.09254     284839.2    14.849634 
   59500    2090.2474    -659.6374    306412.86    14.854432 
   60000    1984.5875   -693.06601    308555.47    15.071292 
   60500    2014.1567   -695.04832     298954.2    15.108682 
   61000     2047.371   -716.74508    303599.65    15.320661 
   61500    2221.7195   -733.70018    304688.54    15.426704 
   62000    2083.4403   -727.99566    298650.09    15.436803 
   62500    1953.9757   -699.11046    304455.12     15.15905 
   63000    2093.2075   -664.19761    306286.64    14.902424 
   63500    1949.1943   -716.80047    298266.51    15.298064 
   64000    1977.5836   -742.63837    302068.83    15.477769 
   64500    2071.8615   -694.77885    301274.02    15.147478 
   65000      1998.58    -715.3965    298732.25    15.341807 
   65500    2005.4199   -703.99587     304847.9    15.293978 
   66000    1955.0086    -733.2744    297655.83    15.460484 
   66500    1935.1441   -736.86228     298636.5    15.459164 
   67000    1944.5976   -659.38826    302057.93    14.875416 
   67500    2046.7434    -671.3642    300494.57    14.901613 
   68000    2037.4887   -656.94987    306801.99    14.829352 
   68500    2028.4407   -663.67289    303302.91    14.798914 
   69000     2117.947   -667.37139    305291.16    14.802676 
   69500    1986.2208   -665.89975    298877.56    14.814347 
   70000    2137.2679   -674.81741    294059.64    14.861394 
   70500    1902.6701   -680.96252    290609.13    14.877123 
   71000    1872.5457   -679.21806    295563.93    14.887226 
   71500    1939.3941   -669.19083    302434.82    14.793293 
   72000    1975.8167   -673.03045    289937.09    14.923739 
   72500    1990.3047   -655.77148    307729.73    14.811197 
   73000    2055.6198   -660.04439    303485.22      14.8452 
   73500    1955.8689   -661.93687    304223.19    14.799121 
   74000    2013.5969   -665.88365    308306.27    14.804484 
   74500    1952.6213   -667.65684    294949.75    14.792053 
   75000     1996.653   -659.03093    303306.26    14.790342 
   75500    2026.0199   -659.65264    306317.82    14.854325 
   76000    1948.6256   -760.96648    287707.43     15.62379 
   76500    2141.1704   -710.87961    309245.42    15.184624 
   77000    2197.5859    -704.3208    300522.85    15.277959 
   77500    1973.4967   -747.63516     300553.6    15.557283 
   78000    2069.6461   -742.97268    301214.44    15.507243 
   78500    2053.9941   -671.47742    301784.45    14.999764 
   79000    1913.9042   -676.77467    298913.53    14.975788 
   79500    1957.3718   -759.74582    304905.33    15.515554 
   80000    1899.3274   -755.94979    300159.96    15.551471 
   80500    2051.3795   -758.35007    309129.51    15.508433 
   81000     2099.104   -702.81304    308090.84    15.134424 
   81500    1952.4752   -713.65685    299422.36     15.20061 
   82000    2010.4522   -745.63644    307540.61    15.466229 
   82500     2076.423   -732.81381     294769.1    15.369256 
   83000    2042.7654   -750.27126    309307.11    15.502514 
   83500    2070.6134   -758.49663    306451.68    15.554305 
   84000    1878.1614   -758.01964    285270.52     15.56939 
   84500    2030.5085   -753.54988    304358.78    15.568753 
   85000    1939.0254   -750.19123    301024.21    15.525164 
   85500    2095.5166   -753.27167    299784.77    15.591808 
   86000    1929.1082   -754.73806    303865.96     15.56425 
   86500     1995.684   -743.98833    307320.28    15.527225 
   87000    1974.5127   -748.12086     294808.2    15.615046 
   87500    1945.2792   -741.74564    303483.86    15.542924 
   88000    2116.3501   -748.53166    308296.23    15.539587 
   88500    1880.9019   -695.58391     309118.4    14.979826 
   89000    2109.3417   -723.60437    297480.57    15.219711 
   89500    2099.4718   -724.08383    297059.77    15.275018 
   90000    2120.6624   -740.98937    298321.96    15.356251 
   90500    2033.0124   -711.42545    300260.47    15.152636 
   91000    1909.1722   -725.51853    296705.98    15.168327 
   91500    1880.0266   -711.27553    307054.45     15.07397 
   92000    2054.1643   -731.75265    292686.03    15.203586 
   92500    2087.7065   -733.54699    303509.45    15.084025 
   93000    1920.3836    -729.9505    295740.15    15.151786 
   93500    1972.6692   -737.07829    292423.98     15.12887 
   94000    1821.1324   -740.00526    303179.15    15.056224 
   94500    1964.0222   -734.66316    312496.39    15.023336 
   95000    1902.4103   -721.89509    314971.06      14.9856 
   95500    1944.6491   -736.00383    294926.34    15.151787 
   96000    2019.8662   -744.12695    299892.25    15.130579 
   96500    2027.5554   -741.78125    301133.17    15.122214 
   97000    2001.0143   -731.75726    303987.85     15.06423 
   97500    1856.8232   -710.86873    310122.06    15.045687 
   98000     1997.879   -731.06776    293446.93    15.328334 
   98500    2157.4531    -717.0552    292198.49    15.260623 
   99000    1908.8096    -682.8159    301343.75    15.055068 
   99500    2024.2948   -650.25072    297667.34    14.775091 
  100000    1976.9193   -639.89515    323255.53    14.755285 
  100500     1816.673   -631.37665    306466.13    14.811208 
  101000    1975.7871   -645.84601    290637.49    14.839072 
  101500    2079.1559   -654.65997     292057.2    14.849951 
  102000    1962.3628   -633.80277    325912.45    14.748628 
  102500    2166.9139   -648.25964    300052.47    14.837511 
  103000    2158.1286   -654.57149    302503.22    14.801412 
  103500    2069.1711   -645.26498    302268.99     14.81167 
  104000     1971.479   -637.39501    306518.97    14.818612 
  104500    2172.7279   -649.45746       295878    14.768076 
  105000    2138.6799   -642.19403     300325.4    14.766097 
  105500    1862.6292   -644.70099     296310.1    14.803703 
  106000    2031.4515   -644.44173     300013.7     14.75071 
  106500    2002.1126   -636.48744    305477.99     14.76712 
  107000    2105.5154   -642.31543    294559.13    14.776256 
  107500    2025.5247   -628.80888    291099.86    14.778943 
  108000    2040.7251    -647.7436    275602.41    14.844097 
  108500    2059.2363    -625.5657    296553.06    14.793818 
  109000    2192.8933   -633.27501    314018.79    14.740497 
  109500    1840.3083   -619.03281    324962.19    14.745916 
  110000    1975.9604   -626.61403    304849.65    14.761715 
  110500    1900.3505   -639.60832    307822.82    14.742844 
  111000     2049.918   -633.99144    310193.46    14.734682 
  111500    1966.3576   -617.18082    331558.04      14.7231 
  112000    1985.7394   -635.60382    320196.29     14.71631 
  112500    1941.4859    -640.9341    281285.04    14.776603 
  113000    2009.8799    -633.8301    294654.12     14.77728 
  113500    2055.8771   -627.37912    304861.13     14.73695 
  114000    2068.4547   -636.77666     277672.5    14.841877 
  114500    2020.1212   -629.67431    285946.01    14.779304 
  115000     1993.111    -621.0334    298988.58     14.78317 
  115500    1933.1015   -630.60176    287453.99    14.820232 
  116000    1965.1034   -615.66951    314685.02    14.756749 
  116500    2096.9022   -619.39808    299217.44    14.781761 
  117000    1869.3096   -617.26873    299497.31    14.821506 
  117500    1976.1726   -637.79488    279123.31    14.826328 
  118000    1940.7804   -618.87098    306332.16    14.780754 
  118500    2106.5162   -621.26251    300502.42    14.837054 
  119000    2026.7356   -627.46146    293638.45    14.822083 
  119500    2098.7169    -617.2641    318221.94     14.74921 
  120000    2036.2964   -632.35191    302998.23    14.768935 
  120500    2010.8944   -635.44883    312120.47    14.738806 
  121000     1932.093    -656.9276    292004.65    14.853577 
  121500    1936.0171     -633.961    305170.28    14.754397 
  122000    2115.4978   -637.92877     295690.1    14.811404 
  122500    1889.0228   -649.51208    292777.59    14.854842 
  123000    1913.8022   -757.18042     291260.9     15.69405 
  123500    1892.1021   -758.52524    295487.38     15.68882 
  124000    1868.5184   -754.19774    285798.19    15.694122 
  124500    1853.8204   -753.94709    298412.64    15.665697 
  125000    2199.4606   -750.37814    297567.31    15.675476 
  125500    1940.5709   -749.02972    306486.32    15.651211 
  126000    2053.5006   -748.56494    308038.71    15.632624 
  126500    2074.6975   -760.49235    302290.05    15.632036 
  127000    2037.6989   -767.55313    299573.36    15.658503 
  127500    2063.9518   -751.87532       311292    15.586847 
  128000    2003.7582   -747.15379    310661.76    15.552428 
  128500    2171.4419   -758.81856    307240.07    15.626104 
  129000    2236.8953   -756.25303     299591.7    15.659179 
  129500    1988.2973    -748.1999     295720.6    15.607307 
  130000    1982.5614   -745.73461    310106.92     15.51812 
  130500    2050.1832   -737.72755    308633.46    15.544133 
  131000    2099.1703    -749.4806    306067.99    15.626153 
  131500    2209.0405   -748.27962    289876.24    15.718818 
  132000    1880.8297   -692.60421    300788.43    15.216009 
  132500    1924.5618   -698.65857     301043.8    15.174827 
  133000    1956.9351   -688.39161     298182.5    15.274926 
  133500    2069.6375   -701.40383    292127.86    15.268311 
  134000    1925.8827    -684.2432    296464.55    15.307319 
  134500    1887.7941   -685.92953     298763.3    15.259593 
  135000    2089.6386   -692.76611    292133.23    15.300856 
  135500    1927.3353   -696.03665    281272.64    15.352583 
  136000     1920.658   -691.33043    293748.63    15.336964 
  136500    2109.3397   -694.48667    290151.94    15.338879 
  137000    1998.2918   -692.26394    305593.62    15.185456 
  137500    1938.8967   -703.61262    300198.19    15.257622 
  138000    2007.1988   -706.21298    299962.75    15.088561 
  138500    1853.7837   -687.36931    309015.01    15.119541 
  139000    1924.5408   -714.07601    290307.37    15.193248 
  139500    1997.8402    -717.8686    302781.87     15.15119 
  140000    1971.3258   -718.00834    296327.97    15.150957 
  140500    2013.9335   -705.52831    298784.72    15.091619 
  141000    2145.9636    -712.5533    295948.52    15.225889 
  141500    1937.2049   -705.65224     304288.4     15.14524 
  142000    1971.5809   -699.74369    302738.57    15.049285 
  142500    1889.0607   -710.80454    305131.57    15.082522 
  143000    2025.4672   -709.65379    298894.59    15.118236 
  143500    2010.9288   -735.28319     297553.5    15.204844 
  144000    1920.6381   -710.84635    298142.18    15.132678 
  144500    2073.8129   -726.52707    302681.68    15.135138 
  145000    1835.6401   -722.94717     293616.1    15.245297 
  145500    1911.9943   -785.14107    289731.15    15.709309 
  146000    1995.3902   -766.68453    309749.14    15.560584 
  146500    2039.8262   -751.42476    306272.05    15.425542 
  147000    1960.0107   -752.06631    303227.55    15.453238 
  147500     2079.384   -775.33432     310262.6    15.624562 
  148000    1857.1624   -782.51503    287522.83     15.66361 
  148500    1954.0949   -758.78895    294818.38    15.582286 
  149000    1980.7819   -773.42355    294195.85    15.628007 
  149500    1986.5213   -758.51843    304545.47    15.613936 
  150000    2095.4486   -749.42756    308586.27    15.585002 
  150500    2024.1336    -746.3688    314499.54    15.577075 
  151000    2028.3682   -737.28787    305310.12    15.632613 
  151500    2128.6185   -760.93199    291832.78    15.724403 
  152000    1717.7079   -753.09866    309909.37    15.689389 
  152500    1869.5877   -754.77946    289364.42    15.759647 
  153000    2086.2109   -751.17531    306787.83    15.742597 
  153500    2115.2416   -755.14296    307408.26    15.689208 
  154000    2041.4355   -759.82534    293251.22    15.774039 
  154500    2189.7378   -761.89296    290047.16     15.71545 
  155000    2126.2579   -759.87523    292412.33    15.698613 
  155500    2075.3568   -757.86356    288242.41    15.733795 
  156000    1980.7113   -759.88725    281447.07    15.772049 
  156500    1953.8484   -756.19971    281615.45     15.79255 
  157000    1942.2474   -755.17353    295505.11    15.728219 
  157500    1951.4737   -759.33804    285437.72    15.784486 
  158000    2049.5228   -751.80737    318378.16    15.645413 
  158500    1907.6218   -756.87611     292591.7    15.768666 
  159000    2072.2617   -750.02739    296472.59    15.757326 
  159500    1923.9139   -758.15379    283997.41    15.840074 
  160000    2187.0754   -753.74999    302906.47     15.72519 
  160500    2126.1384   -746.20796    305908.34    15.635115 
  161000    1983.1995   -745.28737    308762.81    15.609418 
  161500    2117.0927   -744.07984    302009.54    15.688246 
  162000    1983.6104   -752.52944    299078.92    15.667809 
  162500    2064.3801    -754.2367    293150.67    15.730551 
  163000     1942.914    -760.2516    304365.94    15.752398 
  163500     2100.542    -757.3156    297780.44    15.752999 
  164000    1901.6673   -759.64489    287064.95    15.835548 
  164500    1966.9046   -760.62704    290764.39    15.842106 
  165000    1866.4014   -757.59312    303097.34    15.777761 
  165500     2016.396   -758.16219    298900.06    15.777838 
  166000    1934.6491   -760.70254    300532.52    15.714591 
  166500    1958.0226   -748.88413     302105.3    15.685202 
  167000    1812.7158   -734.63592    305800.18    15.607802 
  167500    1947.8682   -737.44396    299969.89    15.640509 
  168000    2049.6793   -754.56231    291665.22    15.727474 
  168500    1989.5328   -757.53822    295830.06    15.705625 
  169000    1957.4896   -736.64868    308314.03    15.495376 
  169500     2109.681   -761.63285     289311.8    15.716114 
  170000    2023.6321   -755.48431    301366.65    15.653713 
  170500    2072.1341   -757.38567    305209.78    15.613281 
  171000    2063.2601   -755.68974    303888.75    15.501942 
  171500    1967.5195   -766.92362    305699.16    15.636488 
  172000    1939.6316   -769.08811    303754.86    15.615762 
  172500    1931.4289     -762.905    304375.94    15.551819 
  173000    2077.1004   -783.23725    289710.74     15.72747 
  173500    1954.4348   -751.10284    295762.08    15.293167 
  174000    2025.8565   -739.44624    296903.88     15.24656 
  174500     1979.111   -742.77543    298717.55    15.183961 
  175000    1940.7536   -746.26679    298576.68    15.191635 
  175500     2029.911   -758.91154    296962.66    15.194296 
  176000    2032.5422   -735.02378    303061.74    15.178607 
  176500    2175.4413   -748.63364    300518.52     15.24341 
  177000    2140.3208    -653.6527    297527.41    14.743312 
  177500    1786.2017   -647.45544       305599    14.725193 
  178000    2024.3299   -639.17461    304646.43    14.789703 
  178500    1925.7327   -644.30571    307548.34    14.718944 
  179000    1873.2557   -644.66856    306354.33    14.766332 
  179500    1789.0765   -718.80917    289387.98    15.293109 
  180000    1998.0361   -752.17357    302203.43      15.6137 
  180500    1914.2042   -789.27062    296561.53    15.731507 
  181000    1950.3271   -753.98726    298856.92    15.409175 
  181500    2046.7362   -734.18396    303804.11     15.13299 
  182000    2026.3622   -699.48227    308929.59    15.118802 
  182500    2046.4659   -714.63105     304164.4    15.035831 
  183000    1967.0221   -683.43048    297901.89    14.953869 
  183500    2104.6802   -737.28889    296796.32     15.30166 
  184000    2075.9974    -735.3469    299833.71    15.199547 
  184500    2141.9858   -718.14913    303680.76    15.059786 
  185000    2055.0885    -701.8016    309216.65    15.085265 
  185500    1913.1369   -709.89291    293872.63    15.190215 
  186000    2001.8947   -667.60867    291437.22    14.883044 
  186500    1769.2819   -700.67134     286846.3    15.099344 
  187000    2081.7297   -710.66484    294747.57    15.165256 
  187500    2049.4911   -699.35682    302893.15    15.213361 
  188000    1914.2638   -684.21047    301312.81    15.099846 
  188500    2128.8826   -752.63583    289014.45    15.729309 
  189000    1870.5826   -742.00755    303868.85    15.479854 
  189500     2094.482    -754.1619    297731.03    15.641988 
  190000    2044.6579   -752.24223    298549.34    15.686101 
  190500    2070.6594   -748.20578    300838.52    15.659107 
  191000    1984.0558   -759.14081    295408.38    15.694385 
  191500    1919.5388   -755.40998    285875.48    15.665917 
  192000    2013.6659   -741.20172    303469.45    15.551679 
  192500    2017.1008   -762.32767    307145.62    15.608499 
  193000     1981.489   -752.55165    303060.25    15.537586 
  193500    2077.0403   -771.68089    309514.17    15.583115 
  194000    2050.8558   -637.23556     322276.2     14.70689 
  194500    2013.7193   -647.30066    294815.62    14.817395 
  195000    1960.7493   -643.69251    307843.33    14.722277 
  195500    2275.1456   -643.19414    317217.56    14.664092 
  196000    1981.2832   -650.88851    303199.68    14.720301 
  196500     1879.705   -643.11823    304411.06    14.743576 
  197000    1747.3268   -632.76057    323431.82    14.684146 
  197500    1844.7132   -649.69209    295885.36    14.792474 
  198000    1930.8983   -710.22844    304238.96    15.097181 
  198500    2108.1294   -771.47117    299193.28    15.664711 
  199000    2056.2166   -699.09119    305706.05    15.107615 
  199500    1871.3172   -704.83941    302977.33    15.067597 
  200000    2017.9238   -731.77722    304989.26     15.07447 
  200500    2120.9116   -739.93977    298103.31    15.334426 
  201000    1977.8872    -760.4133     288929.7    15.630339 
  201500    2044.3383   -753.94046    303143.77    15.543689 
  202000    2130.2397    -746.4502    302478.52    15.229622 
  202500    1920.6037   -710.36203     299306.9    15.073189 
  203000    2010.3107   -736.75642    299609.29    15.188294 
  203500    2004.6178   -702.36328     299120.8    15.183254 
  204000    1960.8271   -696.03012    298639.13    15.068858 
  204500    2099.5804   -724.00787    300893.65    15.241969 
  205000    1933.4763   -736.78417    301405.97    15.165969 
  205500     1960.206   -724.17581    304273.64    15.118451 
  206000    1948.5703   -743.26763    296585.25    15.323187 
  206500    2207.0153   -739.79268    306631.48    15.162448 
  207000    1930.8291   -784.92356    295532.57    15.711292 
  207500    2132.5915   -767.82291    300187.58     15.50743 
  208000     2026.795   -741.63072    303612.45     15.11674 
  208500    1993.5274   -752.24527    297257.61    15.245007 
  209000    2170.2518   -721.80887    302546.16    15.139568 
  209500    2065.5129   -752.10201    295403.02    15.310275 
  210000    2070.4042   -742.15168    298776.89    15.225818 
  210500    1981.1525   -769.26134    299629.77    15.525565 
  211000    2110.4178     -688.411    308370.75    14.883519 
  211500    2044.4419   -650.85322    307046.51    14.669177 
  212000    2101.2632   -652.23521    292801.89    14.710048 
  212500     2126.037   -649.50748    294158.97    14.731517 
  213000    2119.1112    -661.7446    295749.78    14.757416 
  213500    1888.5344   -649.26019    295465.79    14.773131 
  214000    2062.7011   -725.61146    300805.85    15.267574 
  214500    2043.4503   -707.10977    297690.73    15.113687 
  215000    1991.3155   -738.17432    298013.56    15.259713 
  215500    2012.7531   -739.34598    300554.68    15.255738 
  216000    2048.0674   -748.81183    301481.37    15.235302 
  216500    2033.1682   -750.54257     301801.1    15.296277 
  217000    1933.9849   -707.71901    301681.77    15.050082 
  217500    1899.7282   -690.40914    305043.07     14.93775 
  218000    1962.9409   -696.10662    303943.22    14.945514 
  218500    2014.3617   -719.94344    296712.75     15.17331 
  219000    1815.5146   -717.64976    294978.52    15.229289 
  219500    2021.5339   -715.17515    304650.25    15.015658 
  220000    2054.2292   -755.46826     295314.8     15.32817 
  220500     1898.512   -711.73756    297910.64    15.010903 
  221000    1845.2876   -768.92254    291594.98    15.654218 
  221500     2058.156   -707.29626    302398.42    15.114921 
  222000    1992.0424   -706.10933    296691.97    15.215996 
  222500    2088.0548   -652.48181    300005.99    14.877295 
  223000    1806.8436   -646.09851    293455.43    14.881323 
  223500    2081.5699   -642.99177    298604.86    14.774539 
  224000    1827.6576   -640.17026    305560.31    14.742208 
  224500    2112.5351   -646.71705    298984.13    14.813048 
  225000    1969.5347    -678.4504    299739.15    14.928042 
  225500    1971.5099   -688.10173     317425.9    15.011558 
  226000    1901.6474   -743.56521    296482.86    15.476987 
  226500    2039.8634   -721.07573    296664.99    15.280832 
  227000    2252.1735   -703.41259    296680.99    15.189825 
  227500    1953.5441   -714.63425     295749.2    15.397343 
  228000     1879.201   -722.68175    302051.02    15.463691 
  228500    1883.0871   -706.22198    294205.97    15.217816 
  229000    1802.7901   -749.65225    297248.95    15.356841 
  229500    1890.5609   -735.33188    305373.93    15.449933 
  230000    1812.8222   -752.47022    299556.88    15.642436 
  230500    2138.0174   -756.48674     304666.7    15.518759 
  231000    2088.9765   -759.38045    307308.03    15.554606 
  231500    1856.3524   -762.20382    299883.88    15.631444 
  232000    2045.3719   -759.90066    300124.28    15.586857 
  232500    1864.7778   -684.82768    300566.18    14.975282 
  233000    2006.2649   -743.88205    301848.05    15.508344 
  233500    1852.3539   -736.62648    303659.98    15.540413 
  234000    2031.3676   -730.08841    296597.04     15.36344 
  234500    2072.9646   -707.30946    301604.26    15.149943 
  235000    2024.7255   -656.92826    290905.82    14.866879 
  235500     1976.901    -640.2136    301297.68    14.766826 
  236000    1876.4954   -641.13918    293742.54    14.827714 
  236500    1950.1942   -628.70656    305510.49     14.75193 
  237000    2032.4211   -645.47971    303330.36    14.721253 
  237500    1905.1408   -637.55411    306116.79    14.742917 
  238000    1813.4569   -628.01567    311556.26    14.719134 
  238500    2141.9763   -643.11725    294829.94    14.834352 
  239000    1905.5737   -645.14208     291613.8    14.768347 
  239500    2004.6102   -645.55561    295288.51    14.847569 
  240000    2151.2112   -649.00577    299686.87    14.778984 
  240500    2224.9176   -645.16531    299646.84    14.826088 
  241000    2245.7787   -650.96461    299790.33    14.875306 
  241500    1980.2404   -652.78434     297330.1    14.823748 
  242000    2162.6112   -663.75098    296661.98    14.968839 
  242500    1979.7891   -650.17502    298211.97    14.790735 
  243000    1889.4224   -660.08012    294419.42    14.775442 
  243500    2065.1753    -640.5007    302427.06    14.792353 
  244000    2101.5172   -677.42346    307214.75    14.950306 
  244500    2157.3154   -795.78838     281265.2     15.78448 
  245000    1977.6536   -730.12868    299411.66    15.365159 
  245500    2111.4939   -669.81348    298633.94    14.847611 
  246000    2015.6525   -703.18661    295386.62    14.900266 
  246500    1884.8687   -694.95422    296948.23    14.849064 
  247000    2045.3064   -740.18974    298371.04    15.251425 
  247500    1970.0884   -779.15743    282679.27    15.740858 
  248000    2004.3377   -678.89036     305693.9    14.984664 
  248500    2164.8015   -641.04503    296761.34    14.813934 
  249000    1887.1597   -668.26087    301539.43    15.005289 
  249500     1861.872   -755.91172    304399.83    15.680737 
  250000     2122.148   -736.49837    307639.92    15.560526 
  250500    2105.0747   -759.51541    292358.49    15.758633 
  251000    2019.4553   -753.26838    301646.02    15.666719 
  251500    1984.9721   -754.03024     304770.5    15.654041 
  252000    2087.7153   -727.63191    306035.73     15.43257 
  252500    1997.9133   -744.94552    302812.31    15.486763 
  253000    2035.1189   -726.25605    298549.43    15.341717 
  253500    2051.6345   -660.27478    296982.13    14.925187 
  254000    2142.7241   -631.93935    302600.11    14.739268 
  254500     1936.561   -637.25027    298769.74    14.819466 
  255000    2114.6971   -640.44027    304573.55    14.743857 
  255500    1998.5319   -639.09867    294650.87     14.76164 
  256000    2144.3426   -648.40898    296235.15    14.877407 
  256500    1966.9087   -636.64288    298802.56    14.774888 
  257000    1878.4785    -728.3871    305736.77    15.460399 
  257500    1794.6699   -753.68715    297753.79    15.669157 
  258000    2167.6565   -742.46342    303482.32    15.562261 
  258500    2049.0908   -734.85885    299474.97    15.524663 
  259000    1933.7808   -756.67772    290530.83    15.755312 
  259500    1971.1216   -763.62617    296720.98    15.723208 
  260000    1919.7491   -721.07055     301911.2    15.544524 
  260500     2133.545   -731.51505     307623.2    15.553424 
  261000     2131.886   -732.18593    301832.57    15.532274 
  261500     2006.834   -757.46347    298989.65    15.655661 
  262000    2125.5919   -717.16718    303709.65    15.483452 
  262500    1920.9684   -734.12688    301504.95    15.627849 
  263000    1870.5692   -715.32484    298586.96    15.444555 
  263500     2137.325   -678.94139    302524.92    15.082692 
  264000    1894.0455   -756.32626    295829.67    15.688821 
  264500    1959.8114   -759.29444    304982.56    15.751513 
  265000    2056.7366   -745.13398    306423.19    15.627111 
  265500    1884.2378   -726.13798     299977.6    15.420322 
  266000     2121.243    -726.2026    307148.83    15.460475 
  266500    1913.0923   -717.60194    296912.37    15.291809 
  267000     2137.415   -691.20973    298270.74     15.12714 
  267500    1876.7347   -760.55109    297948.91    15.765201 
  268000    2063.7611   -761.72395    301957.62    15.734961 
  268500    1793.5519   -758.94338    296198.52    15.753902 
  269000     1979.056   -757.28811    292249.36    15.753789 
  269500    2114.0175   -641.22826    305808.23    14.947418 
  270000    2059.4976   -596.12285    303230.46    14.671217 
  270500     1958.295   -616.03696     298605.8    14.724816 
  271000    1825.7892   -608.13705    302013.99    14.693691 
  271500    2102.0973   -617.05077    279938.95    14.708039 
  272000     2099.114   -632.16419    299707.92    14.706017 
  272500    1927.6622   -614.62064    299701.66    14.681457 
  273000    1917.7615   -629.74294    294149.19    14.714837 
  273500     1968.508   -632.32051    295266.92    14.696892 
  274000    1872.9696   -619.44388    290131.75    14.695765 
  274500    2061.7362    -633.2517    294662.99    14.804352 
  275000    1723.2896   -604.10931    313008.62    14.620979 
  275500    2050.0038   -606.49119     304432.8    14.653999 
  276000    2149.8786   -610.34805    301864.35    14.699663 
  276500    2072.1573    -613.0966    296003.63    14.690845 
  277000    2024.8882   -619.81781     286041.8     14.69872 
  277500    2060.2259   -603.44175    318345.95    14.628965 
  278000    1909.6838   -611.12962    298484.01    14.657741 
  278500    2116.0992   -609.59451    302475.88    14.634874 
  279000    1930.2329   -613.06479    300091.09    14.682735 
  279500    1931.9264   -613.55294    306800.71    14.644248 
  280000    1912.4391   -675.75346    299761.99    14.992014 
  280500    2149.0016   -613.74639    293986.82    14.711808 
  281000    2022.6617   -619.61961    289655.86    14.707684 
  281500    2030.8008     -616.091    294893.96    14.675803 
  282000    1858.6518   -607.85848    290036.53    14.720948 
  282500    2098.5439   -627.97181    297734.86    14.782679 
  283000    2032.9661   -625.24808    277492.83    14.727691 
  283500    2015.0774   -613.86496    281817.26    14.716595 
  284000    2065.1262   -594.18717    340011.66     14.63893 
  284500    1901.6714   -628.52689    279254.06    14.713463 
  285000    1888.3246   -617.48057    297993.45    14.690168 
  285500    1976.1167   -608.60479    298797.86    14.690003 
  286000    1949.6169   -638.65673    298424.96    14.747637 
  286500    2077.3495   -691.17972    286506.99    14.962283 
  287000    1904.2541   -678.63358    295464.86    14.940207 
  287500    1961.1885   -694.03109    299801.99    15.012472 
  288000    2089.5645   -721.47641    294536.98    15.226921 
  288500    1996.9889   -689.17123    301953.49    15.066407 
  289000    2048.5515   -730.33461    306547.12    15.367888 
  289500    2030.8981   -690.41119    294750.22    15.021985 
  290000    2036.4322   -677.43703    299891.41    14.974637 
  290500    1977.7082   -667.80725    300062.52    15.066759 
  291000    1895.0112   -690.19091    297575.92    15.287306 
  291500    1941.6747   -677.74386    303713.21    15.303945 
  292000    1913.9463   -747.95206     302800.6    15.600414 
  292500    2005.8518    -704.2239    298071.27    15.231365 
  293000    2006.9528   -713.67644    301598.17    15.166884 
  293500    1837.2453   -700.16181    304729.78    15.188983 
  294000     2078.305   -769.80474    290148.08    15.788434 
  294500    2005.4441   -767.89593    304733.62    15.723438 
  295000    1989.8107   -749.77547    289124.98    15.540429 
  295500    2067.3948    -705.4851     297906.8      15.0113 
  296000     2030.232    -720.3305    295872.36    15.207417 
  296500    2177.0211   -664.17553    301154.93    14.781075 
  297000    2091.9682   -638.20606    301950.34    14.737399 
  297500    2037.0659   -662.36489    295709.67    14.858316 
  298000    2010.5964   -667.14149    291397.58    14.858325 
  298500     1859.198    -647.9305    301482.83    14.709849 
  299000    1966.2106   -641.75574     301445.2    14.746825 
  299500     1867.143   -664.96188    296723.86    14.791553 
  300000    1907.7833   -688.14859       301010    14.916035 
  300500    1725.6031   -709.55547    293969.16    15.141787 
  301000    1866.7931   -708.95405    294865.88     14.90554 
  301500    1997.7618   -700.93819    305432.16    14.839411 
  302000    1865.5766    -711.0369    292437.11    14.916136 
  302500    2053.3962   -678.49755    303186.61    14.824392 
  303000    2115.9485   -765.51325     294867.5    15.449606 
  303500    2131.5219    -716.6429    295925.44     14.91666 
  304000    2042.2444   -712.80604    301062.91    14.872603 
  304500    1967.9125   -703.46706    301197.86    14.985771 
  305000    1902.0543    -699.9784     295744.7     14.92251 
  305500    2126.5042   -702.54195    296455.73    14.861128 
  306000    1817.2667   -700.39998    299936.64    14.854856 
  306500    1963.9982   -704.48944    313809.36    14.775084 
  307000     2138.388    -730.3336    294266.87    14.952607 
  307500    2018.3002   -702.20398    304579.79    14.877333 
  308000    1945.6046   -700.34929     297334.2    14.814526 
  308500    1903.7937   -695.47876    298799.89    14.860274 
  309000    1899.2407   -741.55042    300200.13    15.348315 
  309500    1920.0449   -684.08868    300230.88    14.985347 
  310000    1977.3645   -658.54564    296671.78    14.814166 
  310500    1813.6997   -640.21228    305150.23    14.728819 
  311000    2079.7684   -636.79412     307750.5    14.689338 
  311500    1976.2466    -662.6818    301306.31     14.84707 
  312000    1997.8912    -696.1873    299379.31    15.147759 
  312500    1980.6098   -743.45223     297902.1    15.437141 
  313000    2007.9252   -760.56683     285906.2      15.7081 
  313500    1981.7882   -762.20879    306237.35    15.631116 
  314000    2025.8772   -756.78961    300966.59      15.6419 
  314500    2150.0393   -767.37408    275006.99    15.820629 
  315000     2025.826   -763.06788    301918.43      15.7255 
  315500    1914.8231   -760.56785    294669.44    15.813637 
  316000    1852.7545   -762.34251    296829.88    15.757826 
  316500    1840.0528   -757.67182    296711.49     15.76282 
  317000    1909.1556   -736.07501    301889.66    15.412575 
  317500    2042.1677   -766.83077    278724.97    15.797484 
  318000    1864.7546   -732.96806    302764.38    15.579253 
  318500    1956.2199   -736.80123    298065.81    15.539328 
  319000    2060.4794   -769.57019    273914.08    15.822814 
  319500    2069.8663   -752.11006    304437.65    15.842883 
  320000    1986.3521   -757.93196    302278.38    15.775094 
  320500     1868.297   -760.92817    303321.03    15.676563 
  321000    1796.0335   -762.18091     301970.5    15.599707 
  321500     1936.731    -758.6328     296708.3    15.554716 
  322000    1913.8022   -712.02642     303260.6    15.298778 
  322500    2036.9999   -703.35554    300672.94    15.253808 
  323000    2018.2239   -772.50225    291668.69    15.783833 
  323500    1857.7847   -744.89948    297197.47    15.681747 
  324000    1939.5127   -772.41378    309123.39    15.737865 
  324500    2073.5348   -687.17878    308541.45    15.075004 
  325000    1977.8578   -751.68128     303251.2    15.482752 
  325500    2009.7343   -747.00622    296656.99     15.39656 
  326000    2135.2506   -742.86185    301970.33    15.226791 
  326500    2237.9693   -704.33012    306134.14    15.041086 
  327000    1873.0876   -698.28483    302077.24    15.029737 
  327500    2041.0345   -675.18837    302438.66    14.871752 
  328000    2111.4183   -692.24156    303208.68    14.924811 
  328500    1955.3791   -669.01151    302147.57    14.813726 
  329000      1997.81   -688.34402    304699.26     14.76013 
  329500    1997.2263   -705.72277    300279.16    14.976882 
  330000    2008.6485    -754.1738    300969.87    15.451041 
  330500    2096.8473   -755.76954    301422.13    15.450113 
  331000    1956.7095   -755.67982    301162.39    15.543401 
  331500    1845.2577   -774.57068    306171.64    15.699866 
  332000    2227.0014   -749.38665    307757.91    15.286887 
  332500    2030.3258   -756.34443    302003.67    15.462067 
  333000    1823.8096   -748.04981     298346.5    15.393932 
  333500    1943.8053   -673.87368    301113.92    14.736574 
  334000    2057.7757   -689.12689     305683.5    14.953586 
  334500    1929.7053   -706.29021    295729.95    15.058621 
  335000    2050.5046   -692.40776    305262.92    14.920607 
  335500    1908.5563   -713.92669    295706.97     15.02143 
  336000    1893.8562   -700.30932    295052.05    15.085607 
  336500    2040.8728   -731.36621    298215.76    15.123541 
  337000    2022.6724   -698.23655    300838.85    14.985083 
  337500    2036.5972   -690.15216    308831.05    14.948531 
  338000    1959.4769   -767.88161    291778.97    15.498273 
  338500    1901.8205   -696.80038    294232.53    14.862256 
  339000    1942.7705   -722.46949    293163.75    14.956605 
  339500    2050.7363   -721.64159    297356.47    15.067293 
  340000    1828.7378   -718.59152    295746.76     15.05804 
  340500    1966.0367   -689.55987    299384.12    14.935014 
  341000    2075.8929   -704.83302    294713.69    14.976688 
  341500    1956.6576   -690.97056    299000.42    14.947178 
  342000    1997.5462   -640.82797     299315.5    14.641366 
  342500    2055.6882   -654.27226    298424.26    14.709295 
  343000    2098.4917   -653.57238    300574.54    14.713906 
  343500    1954.0289   -658.96609    296375.12    14.806547 
  344000    2061.3738   -711.46293    294996.17    15.023825 
  344500     1919.075   -725.86519    294340.02    14.919803 
  345000    1998.9381   -713.34651    295181.77    14.908309 
  345500    2034.6063   -717.78567    299107.61    15.174884 
  346000    2122.5455   -635.70474    302088.84    14.671669 
  346500    1919.2851   -643.31716    298655.55    14.753428 
  347000    1944.8795   -641.79868    299472.84    14.699538 
  347500    2004.9489   -638.29154    298224.37     14.75492 
  348000    2195.3328   -652.31056    294847.51    14.832963 
  348500    1935.3953    -654.4366    296296.88    14.789562 
  349000     1927.172   -663.74265    298699.38    14.838695 
  349500    1907.6781   -765.67491    291151.43    15.491386 
  350000    2139.6558   -794.42839    302444.37    15.734046 
  350500    1818.0577   -798.89562    280018.15    15.777707 
  351000    2087.1987   -784.14606    301333.22    15.735788 
  351500    2138.7936   -797.20662    287965.37    15.798367 
  352000    1962.5854    -799.9704    299848.66    15.785397 
  352500    2094.4675   -808.05263    294537.71    15.759484 
  353000     1878.218   -785.79661       312325    15.658687 
  353500    1992.4017   -799.78734    306318.97    15.740824 
  354000    1963.4322   -789.29557     281221.8    15.768243 
  354500    2172.0053   -757.93478    305341.95    15.340941 
  355000    1901.5141   -746.61393    301795.86    15.337998 
  355500    2136.9661   -751.50446    306571.53    15.489012 
  356000    1959.5092   -758.54486    299739.77    15.476316 
  356500    1778.3468   -736.43996    300282.78    15.344924 
  357000    1887.8194   -784.71343    314913.62    15.721638 
  357500    2083.5759   -792.09316    301817.43    15.784182 
  358000    1927.8538   -792.34011    299169.74    15.750646 
  358500    2033.8617    -785.5309    293693.23    15.716002 
  359000    2056.2806   -797.01518    304046.38    15.775943 
  359500    1961.5343   -787.25063    307908.65    15.708403 
  360000    1969.8131   -791.96024    313842.51    15.717631 
  360500      1924.76   -797.18991    304533.78    15.777734 
  361000    2095.4531   -789.89744       312052    15.739483 
  361500    2088.1906   -795.16773    302478.49    15.772366 
  362000    1950.0583   -804.27745    283676.74    15.808916 
  362500    2022.0364   -785.27028    290262.67    15.743477 
  363000    2134.4825   -791.57949    293419.78     15.75024 
  363500    1984.0361   -788.12949    281091.08    15.804162 
  364000    2280.1904   -797.71735    310490.34    15.724762 
  364500    2242.1978   -787.14839    315432.45    15.696739 
  365000    1858.3665    -785.0065    301374.61    15.751251 
  365500    2001.8143   -773.08949    307858.56    15.747248 
  366000    1833.1574    -771.8282    301083.84    15.765613 
  366500    2005.8556   -767.12611    303233.39     15.71106 
  367000    2075.9081   -767.16741    302126.38    15.785366 
  367500    2144.7747    -772.4722    299055.17    15.730928 
  368000     1810.045   -749.90687    305125.47    15.683587 
  368500    1890.7046   -715.65083    295425.57    15.285867 
  369000    2106.0683   -666.04471    297017.88    14.930986 
  369500    1991.9444   -634.51772    305089.69    14.710216 
  370000    2103.2623    -649.0794    298546.59    14.800994 
  370500    2046.6361   -638.92493     300063.4    14.691603 
  371000    1818.8622    -710.9751    292819.54    15.080172 
  371500    2105.2184   -661.54842     308084.8    14.829643 
  372000    1978.8626   -647.30308    303228.61    14.639764 
  372500    2073.1265   -644.35864    304276.02    14.602769 
  373000    1898.9131   -720.32879     294296.1    14.972079 
  373500    1968.5968   -690.48273    297472.56    14.806045 
  374000    2114.6427   -692.77206    304287.96    14.898226 
  374500    1905.5607   -769.26906    301504.33    15.590043 
  375000    2224.7537   -762.22844    304565.74    15.718039 
  375500    2062.1064   -752.05576    301337.58    15.615754 
  376000    1968.1519   -771.11697    304792.91    15.756095 
  376500    2017.6724   -787.69658    292621.96    15.794582 
  377000    1843.0703   -787.00621     289876.4    15.768619 
  377500    2043.0305   -760.19898    304426.29    15.652467 
  378000     2033.443   -706.81669    299982.87    15.156556 
  378500    1940.2157   -681.20782    302269.84    15.009312 
  379000    1821.4929   -723.49014    287492.11     15.26671 
  379500    2107.1142   -782.94539    288204.07    15.767416 
  380000    2117.2752   -769.26501    307368.62    15.635396 
  380500    1980.4073   -765.77572    304902.03    15.769473 
  381000    2010.8512   -724.12248    300819.48    15.289443 
  381500    1920.1863   -735.26661    297507.97    15.448601 
  382000    1942.3905   -744.85961    304568.75    15.608979 
  382500    1929.9778    -682.9896     306008.3    15.168913 
  383000    1902.9289   -759.21343    299422.58    15.817065 
  383500    1869.4204   -757.57777    298942.14    15.758834 
  384000    1915.8896   -755.00323    300879.73    15.813664 
  384500    2077.1603   -762.16077    302261.75    15.804379 
  385000    2053.4157   -677.50275    299593.99    15.121572 
  385500    2053.4818   -643.55514    299275.47    14.767807 
  386000    2037.2889   -683.19409    300149.58    14.987017 
  386500    2056.4491   -748.16517     298927.4    15.456977 
  387000    2006.9287   -658.56738    301926.85    14.801829 
  387500    2137.5386    -637.2392    301340.89     14.75754 
  388000    1977.5964   -659.96405    294708.21    14.812476 
  388500     1989.065    -730.4723    300740.72    15.351665 
  389000    1766.0663   -761.05042    298624.19    15.785961 
  389500    1972.3017   -750.21371     305365.4    15.751128 
  390000    1908.1336    -762.0908       298144    15.860449 
  390500    1963.5514   -742.35117    301344.79    15.846277 
  391000    1921.8683   -759.77413    306311.11    15.870297 
  391500    1947.9765   -754.48985     294817.4    15.873839 
  392000    1888.5977   -755.98615    297925.56    15.927134 
  392500    2008.8665    -756.0632    309274.73    15.818041 
  393000    1958.0798    -765.2383    285554.51    15.940058 
  393500    2275.5341     -764.808    303057.46    15.876185 
  394000    2274.8153   -760.36354    305840.22    15.879483 
  394500     2049.431   -763.43907    292808.45    15.948771 
  395000    1877.3248   -758.90013    298499.75    15.904447 
  395500     2102.322   -756.76968    309568.87    15.888129 
  396000    2037.4403   -753.78248    309541.92    15.890084 
  396500    1889.2613    -751.6009    291879.09    15.908584 
  397000    2054.2651   -766.44101    300971.21    15.915052 
  397500    1789.2981    -760.1023    293255.02    15.910768 
  398000    1925.0222   -758.55224    307398.93    15.825096 
  398500     2039.418   -770.16507    297675.02    15.819167 
  399000    2137.8241   -744.47111    300298.95    15.874473 
  399500    1903.3398   -753.18558    297116.75    15.928999 
  400000    2037.0075   -733.74554    300194.72    15.790748 
  400500    2062.6223   -642.50973    293282.48    15.156523 
  401000    2161.7591   -668.38123    293656.82    15.243862 
  401500    2057.6132   -673.75263    297222.18     15.29357 
  402000    1847.2563   -675.45752    295020.88     15.24181 
  402500    1765.2233   -641.59127    299742.14     15.06814 
  403000    2108.3361   -640.82346    298314.68    15.023724 
  403500    1885.5649   -641.96409     300680.7    15.087553 
  404000    2002.1497   -644.72591    297808.38    15.000184 
  404500    2069.2057   -623.58168     311639.4    14.999594 
  405000    1807.0251   -643.14435     287574.6    15.176554 
  405500    2022.9357   -623.36002    311767.96    14.981957 
  406000    1919.1832   -629.91341    309606.92    15.096754 
  406500    1955.6175   -640.96844    303904.73    15.032854 
  407000     2087.693   -644.82784    302627.45     15.11928 
  407500    2085.0723   -645.71954    298094.59    15.128627 
  408000    2094.7083   -643.93035    285297.61    15.226492 
  408500    2086.9984   -637.66015    296506.31    15.117468 
  409000    2034.8281   -637.57208     302512.8    15.093418 
  409500    1853.6922   -712.86674    282939.89    15.714745 
  410000    2057.9348   -692.59493    300042.98    15.491922 
  410500    1846.9478   -699.57281    286866.99    15.568083 
  411000    1914.6155   -685.67653    302638.27    15.465365 
  411500    1972.1452   -715.62356    290554.18     15.63197 
  412000    1821.0292   -756.71913    308659.79     15.82427 
  412500    1896.1113     -758.138    303030.01    15.767678 
  413000    2082.5964   -769.41346    296327.04    15.806025 
  413500    1991.9523   -765.92874    300718.33    15.807699 
  414000    1969.4872   -762.00185    295070.84    15.860088 
  414500     2008.313   -762.24115    300301.55    15.864225 
  415000    1954.7199   -756.68817    304925.09    15.868826 
  415500    2063.6775   -767.91066    291854.16    15.911485 
  416000    2012.3148   -757.30383    305220.04     15.87062 
  416500    1964.5146    -756.4972    278568.15    15.980146 
  417000    1804.9441   -759.29956    311098.54     15.80178 
  417500    1954.7784   -760.72616    309291.52    15.809954 
  418000    1963.4329   -758.88319    299245.31    15.830397 
  418500    1918.4335   -759.58667    303238.44    15.820508 
  419000    1942.3905   -757.97397    308100.66    15.740689 
  419500    2113.4141   -768.54106    277667.41    15.886213 
  420000    1807.0477   -688.19608    297628.15    15.253182 
  420500    2140.7909   -739.29379    302614.51    15.496355 
  421000    2022.4582   -770.20012    260391.68    15.833324 
  421500    2004.8243    -754.5409    302338.32    15.581909 
  422000    1963.5938    -768.6314    295100.84    15.798174 
  422500    1899.8961   -753.84513    300078.28    15.724863 
  423000     2061.308   -685.62254    303121.22    15.188107 
  423500    1894.5763   -681.96179    293593.95    15.264395 
  424000    2177.8208   -736.64716    301016.76    15.526899 
  424500    2099.1923   -760.29436    302111.02    15.799901 
  425000    1984.9923   -761.72503    298939.97    15.811328 
  425500    2026.6906   -748.56608    303271.76    15.761915 
  426000     2103.001   -727.80296    299347.57     15.52077 
  426500    2035.9022   -690.36078    298601.91    15.415219 
  427000    2000.8084   -621.70826    304731.34    14.979469 
  427500    1995.2069   -627.49717     302243.8    14.908854 
  428000    2024.1241   -727.68958    297053.23    15.635861 
  428500    2014.6935   -681.25592    299391.99    15.254922 
  429000    2102.7141   -625.24815    300228.82    14.914509 
  429500    1973.3732   -654.04029    298790.14    15.062352 
  430000     1842.918   -649.18442    300110.91    14.983531 
  430500     1942.524   -670.40941    302999.34    15.192452 
  431000    2126.3241    -702.3926    308346.16    15.449359 
  431500    1972.9889    -696.5647     294214.4    15.566809 
  432000    2037.2926   -714.75346    299525.68     15.60328 
  432500    1985.2652   -712.04763    297146.95    15.646766 
  433000    1864.6959   -708.30142    296716.35    15.618225 
  433500    1937.0007   -693.69036    305613.69    15.515202 
  434000    1967.2784   -705.79591    302393.38    15.560253 
  434500    2111.4202   -691.96014    298342.63    15.539841 
  435000    1968.7136   -713.46007     303653.6    15.537281 
  435500    2008.7306   -713.71014    306321.91    15.516434 
  436000    1945.4869    -666.4805    298615.32    15.219256 
  436500    1958.0431   -647.04503    298626.27    15.024409 
  437000    1840.0218   -588.65806    307984.68    14.731541 
  437500    1918.3889   -583.54594    291586.25    14.743236 
  438000    2080.5548   -587.52449    300694.22    14.748579 
  438500    2115.2859    -670.8034    300422.28    15.446065 
  439000    2209.1176   -632.29618    309334.19    15.000223 
  439500    2163.4083   -582.26198    326643.36    14.678695 
  440000    2045.8373   -590.72741    300114.53    14.740653 
  440500    2172.9181   -600.06683    299717.76    14.794077 
  441000    2169.6248   -660.42833    296506.38    15.163456 
  441500    2066.4836   -658.38805    295153.61    15.128873 
  442000    1885.2057   -641.62003    292066.45    15.019539 
  442500    1962.8384   -663.54361    296688.54     15.20636 
  443000    2217.1886   -694.43601    302597.06    15.411505 
  443500    1856.2755   -666.49923    296217.91    15.282095 
  444000    1845.1763   -589.87217    308781.83    14.706205 
  444500    1851.3524   -585.63023    313432.05    14.626133 
  445000    2078.9094   -595.66129    290209.37     14.68355 
  445500    1975.5783   -582.16709    313028.53    14.693041 
  446000    1913.1504   -594.73321    301517.34     14.73562 
  446500    1962.0297    -593.3129    309891.38    14.660101 
  447000    2060.2912   -603.26367    289454.05    14.802114 
  447500    1963.3523   -642.27311     301536.6    15.056212 
  448000    2010.7346   -625.66364    312001.13    15.023139 
  448500    2092.9792   -653.38221    301520.27    14.975295 
  449000    1991.5603   -653.46225    295506.87    14.980509 
  449500    2070.6259   -655.82487    303110.67    14.794915 
  450000    1998.7549   -707.56789    299360.55    15.043978 
  450500    1805.6981   -665.97969    305817.74    14.820528 
  451000    1934.7413   -675.74149    304567.32    14.862561 
  451500    1974.9367   -661.20897    305852.19    14.868624 
  452000    2172.1081   -655.21062    302813.82    14.831917 
  452500    1811.5969   -622.45416    286055.72    14.713551 
  453000    1885.0596   -637.80437    295297.27    14.874391 
  453500     2023.295   -594.86065    335996.83    14.587196 
  454000    2083.6647   -629.74438    296170.11    14.767315 
  454500    2127.4297   -596.99974     302274.9    14.711492 
  455000    2072.8966   -599.30088    287579.68    14.722982 
  455500    1946.1842   -579.04773    314548.95    14.713062 
  456000    2108.9568   -587.93513    306571.13     14.71632 
  456500    1964.0706    -698.3409    296413.39    15.544069 
  457000    2048.2645   -693.89324    295498.85    15.551291 
  457500    1835.3689    -662.1366    290223.06     15.21188 
  458000    2003.9428     -661.799    297909.12     15.08018 
  458500    1922.8388   -641.84073    302747.66    15.021889 
  459000    2166.1555   -647.35553    303937.17    15.150982 
  459500    1956.6739   -685.63606    298821.15    15.313027 
  460000    1958.5534   -653.90178    295428.57    15.099028 
  460500    2049.0474   -718.58287     301145.7    15.435392 
  461000    1986.9189   -749.16706    300817.68    15.675242 
  461500    2026.3743   -738.99719    301316.97    15.661696 
  462000    2131.8362   -719.80052    301422.03    15.597347 
  462500    2047.8434   -711.90982    301572.31    15.491585 
  463000    2047.8569   -712.00303    299176.04    15.600018 
  463500    2034.1387   -720.93568    299420.73    15.609898 
  464000    2148.5993   -706.30472    303414.44    15.557936 
  464500    2142.4437   -702.44394    302757.61    15.590653 
  465000    2015.5096   -702.09317     303522.7      15.6432 
  465500    1868.9831   -706.77073    301419.17    15.564109 
  466000    1953.3401   -701.89428     288983.1    15.608259 
  466500    1856.1454    -645.2254     300520.1    15.204704 
  467000    2125.2626   -676.33719    296987.12    15.290392 
  467500    2074.8811    -643.5577    299285.56    15.075007 
  468000    1876.2147   -640.42297    291589.73    15.113998 
  468500    2063.6075   -650.69561     293961.6    15.169743 
  469000    2018.6406   -672.78212    299349.51    15.377475 
  469500    1868.9145   -682.14967    300164.89    15.428307 
  470000    1952.3588   -685.85411    303656.27    15.434672 
  470500    1868.4214   -704.20813    305015.06    15.451027 
  471000    1941.5862   -734.90057    298920.72    15.748233 
  471500    1826.1116   -606.22603     290408.7    14.774438 
  472000    1915.8389   -605.51522    286036.23    14.737849 
  472500    2026.6942   -595.46237    293006.63      14.6818 
  473000     1859.866   -636.72935    296889.14     14.93846 
  473500     1908.398   -656.93942    299492.22    15.187578 
  474000    2139.0363   -725.58628    305446.03     15.39712 
  474500    2117.8573   -733.79452    303532.04    15.369156 
  475000    1916.2895   -686.31949    304327.16    14.997166 
  475500    2017.3675   -626.25953    302584.81    14.838378 
  476000    2048.5936   -696.35662     304398.2    15.327373 
  476500     2018.725      -752.85    299644.19    15.830221 
  477000    1985.0702   -759.91441    295157.48    15.866042 
  477500    2035.1495   -680.17691    301151.56    15.295251 
  478000    1913.6873   -728.16695    300515.16    15.566853 
  478500    2224.5522   -700.33172    302574.12    15.269851 
  479000    2184.1021   -596.66562    292097.97    14.692757 
  479500    2013.4537   -609.18544     291259.2    14.752682 
  480000    2019.6635    -582.2095    309363.66    14.715441 
  480500    2001.8215   -605.92671    291173.59    14.748098 
  481000     2222.124   -598.45457    302452.92    14.709192 
  481500    1953.9652   -602.09743    300007.18    14.630792 
  482000    2040.4144   -602.41127     315356.5    14.572838 
  482500    2299.1758   -614.29566    300078.82    14.630287 
  483000     2070.596   -644.73158    284049.17    14.888985 
  483500    1921.6721   -681.40811    286216.39    15.010125 
  484000     2000.372   -692.31374    304948.28    14.979205 
  484500     1996.956   -728.08966    299559.59    15.198517 
  485000    1867.7066    -674.5179    297479.01    14.890451 
  485500    2034.6967   -668.41716    298053.83    14.894854 
  486000    1881.0419   -622.72386    293515.58    14.599975 
  486500    1949.5678   -614.95481    294865.23    14.676708 
  487000    2070.1608   -606.86097    292548.44    14.594082 
  487500     1965.025   -640.33713       293492    14.795083 
  488000    2143.8556    -659.4449     289594.5    14.819749 
  488500    1858.8698   -616.27726    308902.84    14.603526 
  489000    2077.1082   -607.46051    306919.02    14.549076 
  489500    1940.3772    -619.7914    289955.41    14.611357 
  490000    2023.7206   -603.54855    305816.41    14.614921 
  490500    1934.6682   -608.20536    305689.28    14.568476 
  491000    1987.7455   -605.75199    279715.77    14.635822 
  491500    2040.9005   -600.46186    309445.81    14.581257 
  492000    2036.6374   -594.87359    317262.48    14.576666 
  492500    1966.1934   -608.68282    291581.74    14.669153 
  493000    1998.6118   -658.94805    297279.06    14.790696 
  493500    1887.6339    -680.7829    297010.23     14.91211 
  494000    2011.8565   -677.84882    301090.83    14.909543 
  494500    1901.2727   -611.01291       304713    14.549183 
  495000    2200.8089     -663.291    309776.06     14.82431 
  495500    1759.1179    -660.0136    310576.69    14.797919 
  496000    1929.1949   -695.15738    286618.28    14.970664 
  496500    1896.4895   -681.34477    299431.73    14.927599 
  497000     1951.501   -692.39848     286839.1    14.973428 
  497500      2004.65   -661.42588     292920.1    14.820721 
  498000    2197.1579   -675.84793    307067.31     14.90364 
  498500    1938.6241   -637.79115     305240.3    14.773887 
  499000    2103.1204   -658.79225    295734.45    14.763561 
  499500    2017.4968   -650.38099    305784.09    14.716974 
  500000    1962.0101   -662.85903    304077.47    14.809107 
  500500    1849.5807   -690.34562    301272.87    14.928585 
  501000     2100.319   -678.44936    305054.55    14.919963 
  501500    2007.6551    -693.1093    304145.59    14.949111 
  502000    1907.0447   -655.34439    296567.44    14.843874 
  502500    2115.3083   -662.00471    295639.14    14.843229 
  503000    1842.6792   -716.18357    301374.76    15.122515 
  503500    1938.5578    -733.8713     294376.8    15.231544 
  504000    1899.6426   -728.74157     297853.3    15.215658 
  504500    1870.7115   -709.05603    292034.02    15.058573 
  505000    1969.6941   -697.10438    283007.84    15.011838 
  505500    1942.4831   -682.35332    297773.71    14.934865 
  506000    1908.1801   -739.89906    298003.88    15.248877 
  506500    2036.3125   -682.60847    299760.11    14.927978 
  507000    1857.9197   -683.20678    294957.78    14.895948 
  507500    1983.6537   -660.86217    312187.56    14.800577 
  508000    2083.5895   -658.39942    311090.64    14.819479 
  508500    2236.0761   -674.92718    291753.75    14.906693 
  509000    1895.4033   -674.20425    298223.12    14.905713 
  509500    1976.5562   -683.31841    298490.85    14.949088 
  510000    1794.8545   -711.43776    291231.76    15.099438 
  510500     1880.582   -618.05279     288464.6    14.606489 
  511000    2081.0653   -628.66258    293899.93    14.605167 
  511500    1972.1865    -711.2059    298216.82    15.115597 
  512000    2083.7486   -670.81995    300352.61    14.816954 
  512500    2092.5283   -682.73729     291156.5    14.864478 
  513000    1956.5528   -678.99749    292177.15    14.913788 
  513500    2011.6846   -606.89945    299434.53    14.627766 
  514000    1986.6257   -635.50466    297554.29    14.687015 
  514500    2045.2687   -621.99587    305830.48    14.771293 
  515000    1941.0785   -626.54095     308162.4    14.947387 
  515500    2132.9345   -713.06377    304868.65    15.324192 
  516000    1988.2704   -676.69714    300386.49    15.213168 
  516500    1989.6105   -698.92099     294570.7    15.517387 
  517000    1998.7655   -725.29433    298624.06    15.550578 
  517500     1774.205   -631.14122     304796.5    14.897801 
  518000    1884.0145   -687.74635    303762.22    15.309078 
  518500    1927.9839   -715.22368    296521.38    15.552726 
  519000    1957.1077   -688.34349    298268.08    15.335184 
  519500    2099.8613   -708.93869    297892.53    15.335448 
  520000    2196.3756   -711.15213     301828.9     15.32919 
  520500    2050.0454   -729.65362    302879.49    15.492805 
  521000    2091.2086   -669.44804    299428.16    15.215378 
  521500    1867.9813   -682.58442    293160.63    15.331199 
  522000    1944.8794   -703.44164    292007.33    15.424114 
  522500    1977.2584   -675.40024    299538.91    15.215514 
  523000     2159.544   -736.36809    303748.28    15.536205 
  523500    2042.4176   -700.75568     302446.1     15.18009 
  524000    1923.2762   -713.63847    301582.89    15.142725 
  524500    1987.8263   -621.26412    322547.69     14.61207 
  525000    2004.6188    -694.1354     304142.9    14.964375 
  525500    1808.5164   -686.98034    298446.52    15.096696 
  526000    1876.6615   -691.38086    300931.47    15.130009 
  526500    2034.7483   -756.84847    307099.19    15.739887 
  527000    1942.2187   -725.78819    303987.01    15.436312 
  527500    2040.0493   -752.62678    302494.09    15.695212 
  528000    1816.1562   -747.71942    304969.32    15.688816 
  528500    2020.7541   -780.93935    303684.08     15.73816 
  529000    1947.3675   -786.10448    313740.99     15.79235 
  529500    1945.3641   -765.15964    302269.74    15.774002 
  530000    2005.0315   -770.97927     310726.4    15.789149 
  530500     2137.521   -767.04802    305712.16    15.761475 
  531000    2086.9478   -765.09832    301509.07    15.736563 
  531500     1999.486   -767.30026    310745.29    15.696139 
  532000    1951.4928   -783.63193    314211.54    15.740933 
  532500    1957.8057   -759.98904    295321.78    15.418288 
  533000    2016.6985   -753.64861    302114.83    15.395335 
  533500    2029.6852   -750.35095    303770.72    15.378867 
  534000    2070.9222   -763.17388    298835.71    15.385263 
  534500     1945.181   -754.00309    296917.02    15.312746 
  535000    2030.8015     -696.427    301458.01    14.944607 
  535500    1884.3913   -693.31928    303160.28    14.889734 
  536000    2008.4506   -717.85664    305776.86    14.946553 
  536500     1954.065   -701.33271    300011.71    14.954738 
  537000    1935.3898   -645.52391    293858.21     14.63374 
  537500    1994.7746   -677.68227    298864.07     14.75853 
  538000    1933.5961   -699.91508    296460.01    14.859065 
  538500     2044.264   -684.82088    301996.86    14.830258 
  539000    2062.4537   -673.77873    306313.72    14.865445 
  539500     2185.619   -658.84148    297304.71    14.649416 
  540000    2003.9085   -648.37363    295731.54    14.618121 
  540500    2022.3059   -664.05754    290281.03    14.717212 
  541000    2012.2565   -712.77175    296537.27    15.023469 
  541500    1966.8827   -632.53654    296427.34    14.639369 
  542000    1795.2304   -704.63117    304167.48      14.9477 
  542500    2051.3401   -703.78906    304735.16    14.870998 
  543000      2053.86    -735.8842    303581.59    14.987587 
  543500    1958.6554   -699.65419    292662.08    14.976271 
  544000    2107.2114   -766.48561    296957.89    15.405022 
  544500    1877.8553   -692.31307     298264.7    14.935681 
  545000     2071.376   -680.61507    303731.13    14.839481 
  545500    1958.5464   -673.73149    297813.89    14.836495 
  546000    2100.0769   -727.42509    289450.18    15.075481 
  546500    1867.2437   -643.46635    300590.69    14.599294 
  547000    1905.9722   -717.76066    300349.12    14.992648 
  547500    2151.3157   -701.52855    303300.99    15.001909 
  548000    2035.9303   -646.13076    304953.45     14.66148 
  548500    1990.6626   -688.71423     303616.1    14.909348 
  549000    2087.5391   -705.75178    297191.85    14.888342 
  549500     2006.551   -736.62927    299248.73    15.098848 
  550000    2019.9574   -787.67923    302486.92    15.611927 
  550500    2015.4058   -795.19002    299538.61    15.772473 
  551000    1898.8565   -783.17818    307230.98    15.758066 
  551500    1856.9855   -789.87721    294792.54    15.766845 
  552000    2062.5598   -795.92012    307704.59    15.778988 
  552500    1920.9488   -788.95558    286680.29    15.818623 
  553000    1938.0603   -663.19371    297982.09    14.850773 
  553500    1892.8805   -711.64227    296315.02    15.057009 
  554000    1965.5249   -682.91503    296839.27     14.92479 
  554500    2044.2432   -698.38554    300350.34    14.995108 
  555000    2017.6322   -685.02156    304181.36    14.895877 
  555500    2154.0167   -625.42609    303161.89    14.733703 
  556000    1929.9049   -603.03854    315637.01    14.634568 
  556500    2018.4055   -731.04295    299597.56    15.398527 
  557000    1907.5177   -771.66298    299509.11    15.786431 
  557500    2034.3563   -764.98024    294310.43     15.75526 
  558000     1972.981   -791.36579    293645.15    15.794029 
  558500    1873.9805   -773.60735    306674.88    15.677263 
  559000    2030.7931    -682.2033    307966.59    15.015809 
  559500    1909.0205   -659.87211    296108.94    14.773005 
  560000    2005.9462   -658.68193    297095.46     14.80374 
  560500    1954.1317   -650.28005     303004.4    14.711187 
  561000    2044.0529   -716.43938     295825.1    14.974249 
  561500    2066.7988   -757.05799    305108.33     15.28499 
  562000     1994.002   -715.62951    298465.78     14.92225 
  562500    1935.5611   -706.61216    294607.69    14.990234 
  563000    1999.5765   -696.24069    303441.91    14.976796 
  563500    1960.8862   -714.75088     296373.3    15.028725 
  564000    1988.2728   -644.34741    305232.14    14.581186 
  564500    1811.1971   -692.10829    300107.79    14.832399 
  565000    1921.7782   -741.78051    301334.01    15.191187 
  565500     1917.518   -729.53619    294805.27    15.054541 
  566000    2011.6425   -671.64111    305631.55    14.798635 
  566500    1891.2653   -697.78135    306505.06    14.944154 
  567000    2026.9393   -695.16142    306583.59    14.922498 
  567500    2128.3728   -700.74972    299681.53    15.120089 
  568000     1898.737   -697.47882    307877.95    14.976327 
  568500    1921.1215    -706.0546     304989.5    15.105129 
  569000    1944.3358   -720.20022    293886.62    15.247499 
  569500    2027.3391   -773.53437    307149.89     15.80246 
  570000     2173.632   -762.38386    300292.31    15.839402 
  570500    1928.8142   -752.19103    301318.04    15.610982 
  571000    2000.0821   -759.25112    303960.25     15.76713 
  571500    1743.1548   -762.77847     297453.7    15.866397 
  572000    1989.5767   -763.10511    300633.87    15.806781 
  572500     1891.847   -761.93769    304956.48     15.76615 
  573000    2099.5104   -746.91883    303484.47    15.680461 
  573500    1996.0777   -733.91832    302617.48    15.563923 
  574000    2193.5098   -691.78466     306623.1    15.186798 
  574500    2107.7235   -755.09327    303539.81    15.785674 
  575000    2128.6668   -747.32361     310434.4    15.633182 
  575500    1977.5737   -761.42504     292367.3    15.835806 
  576000    2057.4927   -762.34104    303274.39    15.761581 
  576500    1989.5213   -758.99831    304604.61    15.826215 
  577000    2127.8428   -736.84776    302773.61    15.562778 
  577500    1972.4482   -712.13999    299989.43    15.516055 
  578000    1988.7117   -671.48881    294495.27    15.139117 
  578500    1988.7918   -703.51735    299740.35    15.461048 
  579000    1922.2109   -695.51624    296343.82    15.466574 
  579500    2116.3558   -699.43007    306183.09    15.436691 
  580000    2187.2587   -686.72026    297950.17    15.423757 
  580500    2103.5985   -619.06101    309761.37    14.956774 
  581000    2087.4894    -642.1055     299311.3    15.070929 
  581500    2013.3018   -656.57305    297341.66    15.178784 
  582000    2027.3114   -639.97899    305998.37    15.104934 
  582500    2127.9717   -655.42237     299551.5     15.21979 
  583000    2074.7445   -630.22543    307122.98    14.947694 
  583500    1860.9261   -704.03865    295042.34    15.623068 
  584000    1891.3622   -689.24074    302059.82    15.466975 
  584500    2156.1356   -729.09327    301079.13    15.695015 
  585000    1879.7485   -678.18057    303145.85    15.434421 
  585500     2056.161   -586.13843    307183.04    14.777933 
  586000    1940.9606   -595.59118    296548.16    14.755428 
  586500    2032.7815   -599.43049    290166.46    14.782639 
  587000    1993.5062   -582.34044    307269.53    14.723004 
  587500     1967.343   -598.34988    305839.18    14.859454 
  588000    2022.9113   -612.67901    300210.04    14.898117 
  588500    2003.2391   -615.36714    297173.34    14.846657 
  589000    2168.8361   -631.61134    299917.72    14.976719 
  589500    2015.8887   -698.32768    297172.25     15.48017 
  590000    2076.0308   -629.05038    304061.35    15.022814 
  590500    2019.7019   -739.10581    299757.76    15.577085 
  591000    2030.4307   -766.24437    296869.32    15.844515 
  591500    1873.9377   -764.13453    295942.82    15.663657 
  592000    2001.2582   -709.33768    299826.91    15.169434 
  592500    2199.2934   -694.95317    301113.76    14.999878 
  593000    2081.9916   -690.43549     296547.1    15.000906 
  593500    2231.5755    -718.6322    297017.36    15.208305 
  594000    1801.2725   -732.22868     293003.3    15.420201 
  594500    1976.9789   -727.38887    302462.59    15.242436 
  595000    2048.9893   -725.98224    302885.07    15.220518 
  595500     1940.638   -736.04663    298293.43    15.340008 
  596000    1846.9146   -742.41508    292329.33    15.392191 
  596500    2050.6694    -708.3178    313695.66    15.101229 
  597000    1984.1893   -736.53509    296680.28    15.451355 
  597500    2002.7774   -733.97089    301645.07    15.317633 
  598000    2190.0476   -645.70515    307823.08    14.869337 
  598500    2066.7958   -668.41539    303859.79    15.005033 
  599000    1971.8991   -732.75927    298428.38    15.378131 
  599500    2117.5449   -728.06912    298674.82    15.299826 
  600000    1934.0479   -735.36062    292549.33    15.331127 
  600500    2021.1363   -710.94119    305031.11    15.161093 
  601000    1968.8186   -716.61356       302010    15.282223 
  601500    1829.1685   -731.15344    301031.31    15.284654 
  602000    2182.1433   -703.05617    304498.05    15.103784 
  602500    1772.7522   -701.60793    303080.13    15.050375 
  603000    1879.5459   -705.37612    297024.87    15.145228 
  603500    2019.6992   -713.05826    297375.34    15.145561 
  604000    1911.3237   -719.31999    297832.99     15.20413 
  604500    2015.4468   -705.89369    303270.92    15.146422 
  605000    2008.6434   -702.34385       304141    15.049639 
  605500    1898.0012   -708.19656    301948.43    15.104581 
  606000    1886.2853   -731.67711       294577    15.272174 
  606500    2024.5657     -735.727    301718.09    15.361991 
  607000    2018.8876   -698.39088     299689.6     15.09996 
  607500    1965.9847   -708.24019    302504.69    15.084825 
  608000    1984.4241   -693.07247     294104.5    15.035278 
  608500    2016.2146   -741.75829    292506.82    15.330214 
  609000    2034.0795   -700.33687    298587.22    15.047234 
  609500     2039.032   -687.80846    308226.55     14.99058 
  610000    1912.0285   -726.81153    297210.73     15.28766 
  610500    1913.4696   -718.56496    298942.08    15.240303 
  611000    1970.3543   -692.53038    305945.53    14.993783 
  611500    1918.2554   -705.78944    295658.43    15.114414 
  612000    2170.1002   -687.12817     309791.4    14.962314 
  612500     1862.688   -735.57784    293854.18     15.40958 
  613000    1866.8346   -701.64089    298580.27    15.136104 
  613500    2123.6052   -711.13864    296300.72    15.132524 
  614000     1918.371   -733.09989     297993.7    15.338657 
  614500    1964.7291   -725.57649    303382.68    15.190122 
  615000    2006.2742   -701.57889    299350.39    15.090047 
  615500    2105.3987    -690.3446    300138.82    15.012285 
  616000    1976.1557   -734.20347    298011.49    15.343194 
  616500    2208.0337   -733.90851    303777.87    15.349682 
  617000    1965.5318   -739.37887    293259.68    15.412876 
  617500    2050.4417   -725.29666    300410.75    15.311379 
  618000    1835.5651   -726.01007    298974.53    15.257034 
  618500     2040.346   -669.23611    292067.53     14.86951 
  619000    2118.3313   -722.05552    301233.89    15.196535 
[...]
14848500    2178.2395   -705.93479    300844.84    15.065989 
14849000     1922.064   -720.06241    296211.04    15.182309 
14849500    1964.3954    -758.0262    297648.87    15.383719 
14850000     1891.631   -727.14857    301690.64    15.061876 
14850500    1999.4458     -737.109    299157.11    15.187712 
14851000    2085.8766   -700.10801    294158.04    14.878451 
14851500    2056.5487   -658.10176    301181.91     14.75992 
14852000    1982.3886    -685.7141    299684.22    14.845742 
14852500    2082.4695   -746.11659    301477.78     15.39964 
14853000    2078.3256   -788.29833    305182.76    15.814141 
14853500    1957.5376   -778.12303    294787.14    15.905353 
14854000    1873.9603   -780.00468    293639.71    15.847197 
14854500    1948.1326   -773.49484    297383.68     15.84568 
14855000    2101.8671   -783.69683    304828.58    15.838619 
14855500    2059.3356   -745.97559    303076.11    15.323245 
14856000    2045.3003   -757.57577     299955.7    15.355731 
14856500    2159.2048   -733.96654    307869.49     15.11854 
14857000    1978.8191   -716.06544    299963.54    15.065444 
14857500    2181.1426   -691.34974    303755.08    14.848435 
14858000    1939.0269   -662.81383    302006.21    14.808699 
14858500     1962.405   -696.88419    298838.78    14.933225 
14859000    1914.9302   -690.82982    308703.53    14.802022 
14859500     1985.883   -670.53697    314931.55     14.74687 
14860000    1916.7436   -680.05584    295287.66    14.799987 
14860500    1833.1965   -655.75795     301494.8    14.795592 
14861000    2196.1964   -689.70991    305802.73    14.920043 
14861500    1917.3398   -718.13744    298598.49    15.249319 
14862000    1985.4894   -718.60422    301239.38    15.513836 
14862500    1902.0696    -739.4286    300596.59    15.568908 
14863000    2042.8467   -698.33093    301140.14    15.326748 
14863500    2021.9278   -649.53245    295160.59    15.029415 
14864000    1886.8908   -644.43028    300421.23     15.11058 
14864500    2126.6781   -691.54086    301756.13    15.317945 
14865000    2007.9259   -655.96692    303417.23    15.203329 
14865500    2004.5556   -756.14957    301676.55    15.868387 
14866000     1869.348   -723.50932    293606.02    15.737762 
14866500    2025.8285   -667.27594    301907.49    15.225531 
14867000    2136.1535   -670.57404    301423.47    15.221604 
14867500    1972.1733   -613.27151    300959.56     14.97103 
14868000     2090.365   -696.12624    301582.01    15.547161 
14868500    2036.2221   -725.67539    302725.56    15.523009 
14869000     2103.034   -762.04646     295561.6    16.029194 
14869500    1854.6761   -726.26796    298792.26     15.77464 
14870000    1956.9763   -691.74305    294435.85    15.573558 
14870500    1963.2396    -691.5644    299341.52    15.359645 
14871000    1972.2492   -666.25637    310133.04    15.355963 
14871500    1963.0515    -671.8529    299901.06    15.190752 
14872000    1833.3933   -662.93926       300614    15.202752 
14872500    2099.7669   -761.57232    290446.82    16.073005 
14873000    1847.2691   -754.15924    305819.77     15.84031 
14873500    1859.5483   -748.22148    296444.26    15.690625 
14874000    2048.7783   -767.34162    300006.99    15.798624 
14874500    2067.4301   -759.05122    301214.37    15.626448 
14875000    1990.3649   -770.11608    298901.45    15.802046 
14875500    1990.5419   -767.08972    297024.01    15.784619 
14876000    2095.7519     -757.503    304832.72    15.684674 
14876500    2006.8888   -739.58881     303043.4    15.550691 
14877000     2069.056   -768.74648    295160.49    15.842004 
14877500    1976.2015   -678.96529    299947.85    15.129184 
14878000    2190.9773   -616.93959    302545.13    14.839373 
14878500    1949.0113   -636.31597    293200.53    14.915928 
14879000    1926.9044   -612.60961     301252.4     14.85607 
14879500    1842.5649   -702.32383    295475.84    15.467412 
14880000    1969.9562   -772.10702    292887.56     15.91618 
14880500    2024.4598   -735.41781    301564.84    15.353339 
14881000    1962.7053   -706.23008    301377.51    15.254163 
14881500    1973.3177    -596.8917    306117.75    14.590036 
14882000    1952.6792   -620.19019    294980.47    14.838533 
14882500    2024.0655   -644.37453    298608.41    14.959487 
14883000    2028.5417   -645.17384    301412.24     15.10788 
14883500    1805.5797   -739.44692    298196.79    15.806702 
14884000    2140.9473   -753.27609    302669.87    15.848689 
14884500    2134.9456   -744.20955     299238.7    15.879823 
14885000    1922.9054   -675.80954    302605.18    15.320539 
14885500    1967.7829   -700.11763    299439.45    15.499919 
14886000    2096.1313   -666.07291     300789.7    15.443947 
14886500    1915.4577   -658.83849    300654.03    15.301836 
14887000    1869.8742   -656.46175    301626.92    15.289341 
14887500     1973.866   -733.29435    296461.37    15.925816 
14888000    2028.0732   -707.47667    302127.65    15.760887 
14888500      2226.18   -704.77655    302353.98    15.816671 
14889000    2060.8092   -701.86899    300339.44    15.748933 
14889500    2188.3202   -703.08313    303383.75    15.674384 
14890000    2072.8972   -679.94604     303867.8    15.427458 
14890500    1896.0451   -686.76947    300269.63    15.382617 
14891000    1925.3357   -587.25268     317553.1    14.862152 
14891500    1910.0724   -727.27552    289554.91     15.92361 
14892000    1948.6884   -687.44715    297020.01      15.4656 
14892500    2113.3134   -616.07411    295266.71    15.082886 
14893000    1895.5214   -598.98084    310290.08    14.906323 
14893500    2028.3438   -679.86293     297601.4    15.448807 
14894000    2139.4627   -638.12445    302961.27     15.07241 
14894500    1971.3878    -699.5242    298194.48    15.504307 
14895000    1958.3458   -678.26715    296495.91    15.385682 
14895500    1965.6425     -622.175    300287.58    14.953283 
14896000    2065.5499   -637.18043    300742.33    14.877819 
14896500    1955.3079   -685.49038    302122.01    15.220191 
14897000    1915.0285   -759.25633    300024.78    15.863291 
14897500    2161.5056   -750.44185    305549.27    15.691095 
14898000    2102.0153   -730.26852    301820.78    15.303318 
14898500    2101.8927   -764.84357    291428.05    15.700218 
14899000    2059.0542   -646.50612    285666.45    14.824938 
14899500    2025.3714    -652.4236     294542.4    14.828404 
14900000    1936.6189   -686.59738    297242.15    14.997547 
14900500    2109.5336   -645.60258     293749.9    14.834109 
14901000    2160.0682   -694.07095    306221.02    15.130964 
14901500    1955.5685   -749.98294    299483.02    15.664502 
14902000    1944.2811   -761.83168    295497.93    15.737875 
14902500    1980.2673   -761.13265    301779.77    15.729007 
14903000    1849.3934   -746.87963    302240.68    15.732093 
14903500    2064.1405   -751.64724    302447.91    15.689449 
14904000    1952.4671     -751.972    300687.59    15.820729 
14904500    2068.4747   -756.11725    302079.45    15.712543 
14905000    1833.4938    -762.0884     304590.8    15.822935 
14905500    1924.5046   -742.37858    282506.37    15.663257 
14906000    1934.2231   -786.01673    303070.58    15.810147 
14906500    1966.1238   -786.88049     284471.7    15.866147 
14907000    1973.1261   -771.90264    296417.86    15.854814 
14907500    1948.7408   -712.93097    302344.58    15.122653 
14908000    1970.2061   -688.69954    294366.62    14.869638 
14908500    1956.3727   -681.54966    304015.75    14.767011 
14909000     1981.388   -680.30525    306572.57    14.766586 
14909500    2014.4373   -692.83373    300971.95    14.819932 
14910000    2037.5371   -664.17804    303132.15    14.742197 
14910500       2059.9   -664.20599    299195.36    14.759179 
14911000    2122.4146   -674.31967    298612.28    14.858454 
14911500    2007.3837   -677.63035    301152.95    14.797743 
14912000    1856.3474   -669.96988    306007.25    14.816207 
14912500    1944.2229   -691.62685    300028.53    14.942357 
14913000    2122.6474   -759.63023    294763.17    15.313441 
14913500    2131.2391   -756.53771    295175.73     15.25574 
14914000    1977.1372   -746.77907    295567.94     15.16186 
14914500    1996.1207    -758.9721    293088.79    15.186926 
14915000    1900.7882   -697.53684    302234.27    15.128724 
14915500    1856.6875   -731.19916    298169.25      15.3572 
14916000     2107.503   -743.61387     303487.5    15.310887 
14916500    2096.8557    -779.1793    305061.29    15.541985 
14917000    2107.1225   -788.18281    297837.51    15.605925 
14917500    1827.7931   -610.20372    302271.94    14.528784 
14918000     1996.724   -645.63492    313642.75    14.797063 
14918500    1998.7207   -684.80397    294744.51    14.852023 
14919000    1903.8777   -722.36741    296374.97     15.09726 
14919500    1980.2891   -681.51774    295656.76    14.833885 
14920000    2032.9153    -732.7224    302319.81    15.149568 
14920500    2093.4408   -765.84966    291212.91    15.193305 
14921000    1972.6031    -745.7027    307458.39    15.075778 
14921500    2090.6887    -763.9244    295329.79    15.195619 
14922000    2134.7273   -747.67084    306655.25    15.140056 
14922500     2168.217   -808.51393    290627.33    15.882418 
14923000    1991.0329   -795.44509    297050.13    15.789812 
14923500    1955.9802     -781.369    300173.57    15.634846 
14924000    1967.9204   -792.79711    293476.38    15.770006 
14924500    1931.5457   -773.72207    301392.72     15.62745 
14925000    2106.2933   -754.98729     302253.4    15.419057 
14925500    2067.9341   -788.97133    306276.61    15.817937 
14926000     2389.575   -789.59125    311472.67    15.787305 
14926500    1829.3794     -778.674    300157.13    15.789189 
14927000    1899.0068   -780.78923    277925.83    15.910548 
14927500    1814.3327   -790.90642    310397.46    15.714695 
14928000    2091.7799   -784.87019    302388.69    15.660088 
14928500    2012.4733   -787.43033    301119.02    15.498944 
14929000    2008.7683   -794.53158    303876.69     15.45768 
14929500    1921.6456   -719.37601       294027    14.946119 
14930000    1934.6151     -770.507    289303.39    15.286442 
14930500    1929.5591   -749.75803    307554.75    15.078943 
14931000    1846.8614   -740.61382    298537.22    15.271955 
14931500    1894.4539   -791.57239    297241.98     15.74843 
14932000    1848.7727   -793.63593    289789.92    15.798323 
14932500    1835.3949   -790.57892    304583.29    15.788398 
14933000    1970.4778   -775.87562    294286.61    15.496134 
14933500    2063.6793   -663.48279    295754.79    14.783181 
14934000    2018.2663   -669.00169     290085.5    14.856385 
14934500    2201.6869   -661.26348    311525.11    14.756453 
14935000    2046.4294   -661.41609    301711.55    14.813233 
14935500    1886.5661   -667.44828    294237.12     14.88065 
14936000    2029.7669   -649.23942    307556.29     14.78427 
14936500    2042.3645   -699.03374     300931.3     14.96868 
14937000    1853.1703   -750.35936    304490.89    15.427165 
14937500    1900.6154   -749.08261    299762.75    15.358991 
14938000    1897.4647    -747.6281    302109.58    15.414202 
14938500    1925.9893   -751.31097    295289.26    15.396297 
14939000    2049.4253   -751.44639    302085.17     15.47248 
14939500     2169.816    -761.1802    298019.34    15.607539 
14940000    1892.9569   -751.63604    296996.11    15.437525 
14940500    1896.3862   -741.58858    304825.04    15.540238 
14941000    2022.6144   -745.56287    307616.09    15.399853 
14941500      2054.56   -738.10359    303422.28    15.334706 
14942000    2027.4156   -788.68969    305959.82    15.739659 
14942500    2107.9785   -789.79512    299177.01    15.730515 
14943000    1967.1312   -752.49076    298341.49    15.277693 
14943500    1999.0542   -691.06564    298220.05    14.857172 
14944000     1972.028   -679.53815    307254.93    14.758956 
14944500    1928.4907   -764.11536    298118.18    15.388097 
14945000    1988.6794   -691.69361    307282.24    14.772204 
14945500    1942.8552   -610.33699    278884.47    14.558107 
14946000    2146.1754   -603.77102    313298.01    14.506376 
14946500    1951.9054    -607.9609    294661.68    14.523505 
14947000    1967.8919    -595.6218     337891.9    14.509757 
14947500      1953.97   -603.66723    287194.73    14.609012 
14948000    1981.8381    -607.9408    288238.11    14.678357 
14948500    2018.0418   -594.93129    297226.02    14.569829 
14949000    2044.4545   -606.03291    287028.12    14.606305 
14949500    1861.1506   -600.69541    297952.54    14.554271 
14950000     1968.604   -593.78762    304508.79    14.576134 
14950500    1954.9343   -614.27579    293457.82    14.691959 
14951000    2043.2448   -650.34992    299629.97    14.940622 
14951500    1990.9961   -653.43858    300322.56    14.879928 
14952000    2125.6909   -668.80273     291869.9    14.863104 
14952500    2107.0595   -741.31803    300457.33    15.309436 
14953000    1917.6845   -787.83796    300337.74    15.567817 
14953500    1942.6614   -789.23095    298990.43    15.560415 
14954000    1907.3432   -787.45738    300354.32    15.506837 
14954500    1949.1828   -672.61171    311960.24    14.667947 
14955000    1858.0366   -749.43696    295101.17    15.200824 
14955500    1850.0536   -746.20529    303200.29    15.114081 
14956000    2086.9453   -748.77292    304320.04    15.197226 
14956500    1999.6446   -748.98329    300045.64    15.235739 
14957000    1982.7836   -769.41318    301863.47     15.43267 
14957500     2034.456   -752.60058    298815.01     15.33839 
14958000    2020.4438   -711.08316    296952.39    15.137146 
14958500     1878.334   -679.39468    296736.47    14.782796 
14959000    1955.6864   -686.00321    298067.27    14.864167 
14959500    1786.1256   -674.08631    299770.59    14.812063 
14960000    2107.9737   -683.34309    293150.06    14.858003 
14960500    1884.0882   -678.35668    306229.87    14.800499 
14961000    1980.2248   -683.39217    304941.39    14.825897 
14961500    2043.6706    -682.2314    307892.95    14.792212 
14962000    2064.1673   -689.13893    301012.39    14.819129 
14962500    1803.2871   -699.50258    293055.11     14.90367 
14963000    2055.5514   -677.30997    312130.59    14.760494 
14963500    1936.6209   -772.23075    274298.76    15.714821 
14964000    1906.7426   -787.66504    305589.43    15.677334 
14964500    1953.0831   -795.94385    302204.44    15.808255 
14965000    2142.0143   -793.27569    312766.44    15.759002 
14965500    1844.0863   -784.90627    298117.55    15.731509 
14966000    1907.9251   -797.51476    290936.91    15.844596 
14966500    2112.1686   -798.73613    285022.67     15.79916 
14967000    2031.5286   -797.13342    298004.75    15.814709 
14967500    2068.4834   -801.91151    308065.56    15.785037 
14968000    1941.5448   -749.42295    296416.31    15.269434 
14968500    2131.3732   -706.29777    298279.04    15.048258 
14969000    1757.8433   -732.06914     296093.7     15.20532 
14969500    1986.9885   -739.49166    311973.85    15.130017 
14970000    1989.8178   -732.90157    306592.31    15.069092 
14970500    2048.6941   -794.77286    294814.98    15.813435 
14971000    1915.4945    -754.0566    294972.26    15.234503 
14971500    1772.4872   -705.33126    304275.53    15.015624 
14972000     1991.206   -658.25919    314877.17    14.739827 
14972500    1965.1548   -661.40709    298940.32     14.78601 
14973000    1944.7797   -727.21697    295135.89    15.113096 
14973500    1915.6595    -752.9919    303452.39    15.423492 
14974000    2127.0127   -721.10201    302645.78    15.140218 
14974500    2024.9609   -758.38615    300177.23    15.510998 
14975000    1909.2649   -753.74446    294572.31    15.491372 
14975500    2086.7693   -750.70448     299634.5    15.460399 
14976000    2081.6391   -755.05838    300295.61    15.435186 
14976500    1874.9243   -761.65027    298820.78    15.859071 
14977000    2083.0556   -747.84401    307686.28    15.756555 
14977500     1864.429   -729.12141    292783.41    15.606311 
14978000    2051.2687   -759.90444    303692.62    15.777632 
14978500     2018.219   -746.92641    299313.35    15.743575 
14979000    2020.7919   -754.35309    302949.14    15.706852 
14979500      2102.08   -740.24288    301552.11    15.508986 
14980000    1949.2034   -744.15651    299392.03    15.599804 
14980500    2083.6519   -747.05729     304314.6    15.502668 
14981000    1898.7638   -704.77153    298970.36    15.206766 
14981500    1818.1824   -629.87773    302640.59    14.775153 
14982000    2072.8837   -620.44665    303040.59    14.653379 
14982500    2171.2254   -663.03623    306579.59    14.837245 
14983000    2072.8842   -646.92535    294259.74    14.818479 
14983500    1940.1205   -729.40954    303048.03    15.233979 
14984000    2072.2262   -734.91407    303264.69    15.296493 
14984500    1933.5121   -670.56039     303970.2     14.81567 
14985000    2078.4629   -738.05501    293778.83    15.314165 
14985500    2119.5937   -737.38554    297081.73    15.419361 
14986000    1964.2069   -736.93687     296482.9     15.38638 
14986500    2144.0036   -729.99579    304885.18    15.366818 
14987000    2065.7784   -627.70984     306001.8    14.705575 
14987500    2232.1221   -623.27528    306396.34    14.661513 
14988000     1972.094   -695.67252    296631.71    15.016375 
14988500    1966.3416   -664.20142    294460.08    14.883528 
14989000    2039.4198   -662.63232    306880.26    14.869256 
14989500    1980.2452   -633.81892    298884.88     14.71888 
14990000    1788.3762   -679.17826    291346.83    14.985675 
14990500    1924.4582   -677.55242    297645.46    14.912193 
14991000    1959.6485   -656.81377    298881.82    14.914331 
14991500    1841.6506   -628.86238    298597.27    14.700079 
14992000     2112.955   -631.07779     292927.3    14.817804 
14992500    2066.3591   -600.60804    295529.37     14.61537 
14993000    1963.1419   -681.38417    295691.35    15.005521 
14993500     1916.132   -627.71152    298368.37    14.657091 
14994000    1871.3519   -755.17776    295230.07    15.506352 
14994500    2104.8136   -688.42985    301650.88    15.034895 
14995000     1882.587   -605.51831    300171.74    14.640756 
14995500    2035.2914    -636.7918    293134.86    14.816873 
14996000    1920.7651   -754.29448    300779.94    15.555814 
14996500    2118.6358   -772.45231    299829.77    15.776191 
14997000    1960.9513   -745.40208    300580.47    15.516223 
14997500    2062.1124   -692.88894    305425.94    15.155177 
14998000    1868.7271   -689.76253     295904.8    15.157623 
14998500    2022.9464   -693.61982    304356.59    15.071642 
14999000    1823.4835   -619.79042     293819.4    14.668649 
14999500    2088.2245   -708.02644     295828.1     15.18973 
15000000    1813.0465   -748.63265    294888.72    15.486643 
Loop time of 67390.7 on 6 procs for 15000000 steps with 256 atoms

Performance: 38.462 ns/day, 0.624 hours/ns, 222.583 timesteps/s
99.0% CPU use with 6 MPI tasks x no OpenMP threads

MPI task timing breakdown:
Section |  min time  |  avg time  |  max time  |%varavg| %total
---------------------------------------------------------------
Pair    | 3820.7     | 3918.4     | 4024.6     | 127.0 |  5.81
Neigh   | 110.13     | 111.37     | 114.6      |  14.5 |  0.17
Comm    | 924.93     | 1030.5     | 1121.6     | 256.0 |  1.53
Output  | 400.28     | 400.29     | 400.38     |   0.2 |  0.59
Modify  | 61869      | 61879      | 61890      |   2.7 | 91.82
Other   |            | 51.44      |            |       |  0.08

Nlocal:    42.6667 ave 48 max 39 min
Histogram: 1 0 1 1 2 0 0 0 0 1
Nghost:    1117.17 ave 1141 max 1097 min
Histogram: 2 0 0 0 1 0 2 0 0 1
Neighs:    3466.83 ave 3991 max 3204 min
Histogram: 2 1 1 0 0 1 0 0 0 1

Total # of neighbors = 20801
Ave neighs/atom = 81.2539
Neighbor list builds = 750942
Dangerous builds = 1

write_data	data.final.${p_id}
write_data	data.final.3
Total wall time: 18:43:16
