LAMMPS (8 Feb 2019)
Processor partition = 4
echo both

include		in.partitions
variable p_id world   0 1 2 3 4 5
include		in.temp
variable	temperature equal 2000.
variable	tempDamp equal 0.1 # approx 0.1 ps
include		in.pressure
variable	pressure equal 300000.
variable	pressureDamp equal 1.0
include 	in.seed
variable	seed world 74581 93734 128321 21934 495716 871038
units		metal
include		in.box
read_data	data.equil.${p_id}
read_data	data.equil.4
  orthogonal box = (0.458751 0.458751 0.458751) to (15.7252 15.7252 15.7252)
  1 by 2 by 3 MPI processor grid
  reading atoms ...
  256 atoms
  reading velocities ...
  256 velocities

variable 	mass equal 26.981539
mass            1 ${mass}
mass            1 26.981539
include 	in.setup
variable	out_freq equal 500
variable	out_freq2 equal 500

neigh_modify    delay 10 every 1
include		in.al
### Argon Potential Parameters ###
pair_style 	eam/alloy
pair_coeff 	* * Al99.eam.alloy Al

timestep	0.002 # According to Frenkel and Smit is 0.001

thermo          ${out_freq}
thermo          500
thermo_style 	custom step temp pe press lx


restart 	${out_freq} Restart.lmp.${p_id} Restart2.lmp.${p_id}
restart 	500 Restart.lmp.${p_id} Restart2.lmp.${p_id}
restart 	500 Restart.lmp.4 Restart2.lmp.${p_id}
restart 	500 Restart.lmp.4 Restart2.lmp.4



# NPT

include		in.dump
dump            myDump all atom ${out_freq2} dump.al.${p_id}
dump            myDump all atom 500 dump.al.${p_id}
dump            myDump all atom 500 dump.al.4
dump            myDcdDump all dcd ${out_freq2} out.${p_id}.dcd
dump            myDcdDump all dcd 500 out.${p_id}.dcd
dump            myDcdDump all dcd 500 out.4.dcd
dump_modify	myDump append yes
dump_modify     myDcdDump append yes


timer 		timeout 23:50:00 every 1000
New timer settings: style=normal  mode=nosync  timeout=23:50:00

fix             1 all plumed plumedfile plumed.start.dat outfile plumed.out.${p_id}
fix             1 all plumed plumedfile plumed.start.dat outfile plumed.out.4
fix             2 all nph iso ${pressure} ${pressure} ${pressureDamp}
fix             2 all nph iso 300000 ${pressure} ${pressureDamp}
fix             2 all nph iso 300000 300000 ${pressureDamp}
fix             2 all nph iso 300000 300000 1
fix             3 all temp/csvr ${temperature} ${temperature} ${tempDamp} ${seed}
fix             3 all temp/csvr 2000 ${temperature} ${tempDamp} ${seed}
fix             3 all temp/csvr 2000 2000 ${tempDamp} ${seed}
fix             3 all temp/csvr 2000 2000 0.1 ${seed}
fix             3 all temp/csvr 2000 2000 0.1 495716
fix		4 all momentum 10000 linear 1 1 1 angular

run             15000000 upto # 30 ns
Neighbor list info ...
  update every 1 steps, delay 10 steps, check yes
  max neighbors/atom: 2000, page size: 100000
  master list distance cutoff = 8.28721
  ghost atom cutoff = 8.28721
  binsize = 4.1436, bins = 4 4 4
  1 neighbor lists, perpetual/occasional/extra = 1 0 0
  (1) pair eam/alloy, perpetual
      attributes: half, newton on
      pair build: half/bin/atomonly/newton
      stencil: half/bin/3d/newton
      bin: standard
Per MPI rank memory allocation (min/avg/max) = 4.005 | 4.07 | 4.382 Mbytes
Step Temp PotEng Press Lx 
       0    1810.3241   -759.36885    277067.35    15.266498 
     500    2096.5326   -744.91882    309385.97    15.192669 
    1000    2056.9744   -750.62325    293842.81    15.249833 
    1500    2052.2845    -750.5255    280307.53    15.328232 
    2000    2005.3067   -749.92799    285122.55    15.318163 
    2500    2005.2137   -735.35016    299492.03    15.257469 
    3000    1982.5138   -725.55642    304861.05    15.214426 
    3500    2003.5205   -728.46447    300289.44    15.231281 
    4000    2015.3518   -733.77358    299287.32    15.264154 
    4500    1846.2286   -714.62015    307175.22    15.191049 
    5000    1839.8742   -730.45367    300940.29    15.225357 
    5500    1931.1507   -740.41343    293478.63    15.317847 
    6000    2026.1249   -733.00233    299905.16    15.302879 
    6500    2072.3398   -736.26095    300158.37    15.235573 
    7000    1996.3791   -707.12764    306164.01    15.175316 
    7500    2094.1062   -712.06799    300863.61     15.19905 
    8000    1949.1879    -738.9051    289346.66    15.366905 
    8500    1938.2944   -744.87934    293714.58    15.387358 
    9000     1931.894   -739.29322    296464.02    15.396219 
    9500    1995.8331    -704.9097    293081.76    15.091852 
   10000    2220.9386   -766.31162    304997.93    15.414749 
   10500    2138.1555   -761.96045    312334.43    15.293833 
   11000    1942.1865   -765.90925    308132.47    15.340688 
   11500    1842.0847   -768.34333    298416.52    15.434951 
   12000    1992.4909   -776.05981    290514.54     15.43293 
   12500    1933.0532   -774.58007     283705.2    15.502383 
   13000    1868.1342   -770.48494    303442.44     15.42894 
   13500    1823.5598   -770.14833    304417.86    15.439886 
   14000    2130.9991   -760.53723    289154.82    15.514597 
   14500     1919.861   -755.47716    311128.28    15.417099 
   15000    2027.2073   -739.91781    309307.93    15.393701 
   15500    2074.5736   -689.47161    304443.63    15.014029 
   16000    2040.7434   -697.46725     329012.5    14.882235 
   16500    2230.3036   -710.45172    287950.35    14.988929 
   17000    2017.3518   -709.99237    292672.98    14.954783 
   17500    1954.3788   -703.53142    294814.77    14.922598 
   18000    2044.7316   -706.05416    296837.93    14.932753 
   18500    1856.7541   -703.67035    292772.12     14.94837 
   19000     2019.822   -692.16931    307357.82    14.916845 
   19500     2030.329   -691.05519    300181.77    15.054067 
   20000    2062.6657   -693.29892    303872.08    15.081505 
   20500    1864.3932    -685.8191    300964.39      15.0353 
   21000     2008.302   -694.66016     291915.9    15.080784 
   21500    1914.3728   -684.73075    300067.37    14.964339 
   22000    2009.1494   -678.22712    307622.81    14.938871 
   22500    2058.2405   -713.73928    297560.26    15.274817 
   23000    1992.3005   -759.17417     298258.2    15.517656 
   23500    1868.1013   -734.69662    304362.82    15.381004 
   24000    2310.6215   -748.69449    311966.84    15.459219 
   24500    2034.1756   -761.77863    315530.16    15.479896 
   25000     1877.813   -770.70864    292115.44    15.566065 
   25500    2032.9521   -754.80667    299080.87    15.525777 
   26000    1877.9465   -760.36495    297132.11    15.540507 
   26500    2044.8415   -763.67566    293365.66    15.533876 
   27000    2027.3254     -750.906    307539.64    15.478759 
   27500    1917.4538   -760.64543    297342.18    15.530132 
   28000    1923.2008   -769.53056    288244.26     15.56121 
   28500    2107.4766   -757.61444    296103.49    15.536762 
   29000       2154.1   -759.54365    305334.86    15.511546 
   29500    2043.4554   -761.85337    292373.76    15.546589 
   30000    1959.3474   -759.11392    286915.76     15.52585 
   30500     2038.479    -765.9367     306102.8    15.538281 
   31000    1904.7187   -772.48636    263418.27    15.622821 
   31500    2089.5849   -771.50262    304247.12    15.535038 
   32000    1954.3704   -759.25041    295446.27    15.522419 
   32500    2059.1745   -740.16978    301585.93    15.432557 
   33000    1945.3356   -756.80436    315515.24    15.505134 
   33500    2054.9896   -768.63521    311224.12    15.533985 
   34000     2112.039   -757.74108     300107.8    15.505452 
   34500    1975.2566    -754.3099    306374.98    15.487355 
   35000    2088.6809   -771.65631    293085.58    15.592231 
   35500    2164.7551   -751.96066    305271.68    15.517213 
   36000    2080.6388   -728.93254    301718.76    15.397774 
   36500    1923.8349   -737.82561     303848.3    15.444572 
   37000    2111.1856   -741.78615    296433.51    15.527172 
   37500    2083.9815   -700.29023    303974.26    15.212702 
   38000     1944.213    -726.7754    308641.84    15.387249 
   38500    1993.7292   -742.96868    294637.21     15.52683 
   39000    1959.6623   -717.18673    302008.31     15.36203 
   39500    2075.5055    -741.0254    288058.79    15.554983 
   40000    1822.0937   -721.30583    303429.69    15.385966 
   40500    1926.5135   -740.49085    298750.45    15.528485 
   41000    1894.4461   -746.20856    299674.88    15.537772 
   41500    2021.1868    -739.6091     305716.1    15.517366 
   42000    1975.4757   -725.04171    308733.93     15.47178 
   42500    2037.2583   -749.80504    299406.09    15.545817 
   43000    2035.2172   -744.38221    289912.03    15.595154 
   43500    1875.6129   -737.30434    299253.25     15.56686 
   44000    1928.2992   -731.81549     305500.7    15.511755 
   44500    1977.7984   -727.44923    303805.79     15.50067 
   45000    1990.5218   -732.35678    302133.22    15.508109 
   45500    1970.6199   -738.84187    289606.59    15.568603 
   46000    2015.9446   -742.18932    292585.82    15.576207 
   46500    1957.6767   -729.18008    307714.66    15.434807 
   47000    2149.8453   -725.14589    311499.64    15.496894 
   47500    1899.5628   -743.17649    293452.71    15.553684 
   48000    1897.4155   -744.62666    294599.23    15.538782 
   48500    1981.7886   -716.77159    298944.94    15.348968 
   49000    1956.2746   -724.14167    305292.84    15.424905 
   49500    2136.4329   -735.73501     301590.8    15.471407 
   50000    1967.3971   -736.25206    298577.53    15.471158 
   50500    2022.8336   -726.87891     300931.7    15.438989 
   51000    2068.1477   -666.63485    299653.11    14.923411 
   51500    2085.3222   -671.10931    301903.76    14.852308 
   52000    2122.9969    -674.7448    295316.44    14.844848 
   52500      1986.85   -675.22804    297234.29     14.85622 
   53000     1901.674   -662.81108    319320.34    14.792468 
   53500     1940.461   -717.38449    296001.44    14.967418 
   54000    2017.9761   -692.81928    294078.37    14.856969 
   54500    2066.5556   -671.02471    301847.53    14.831926 
   55000     1888.505   -699.14199    298231.81    14.893506 
   55500    1834.2081    -709.5313    300999.18    14.908744 
   56000    1906.6263   -724.73205     293060.2     14.97829 
   56500    2105.8391   -705.76121    305448.61    14.875056 
   57000    1956.8106   -700.09406    289031.63    14.909133 
   57500    1952.7314   -689.15011    296650.06    14.822843 
   58000    2118.0149   -685.93158    303700.37    14.827852 
   58500    1868.0818   -720.85045    300528.43     14.94605 
   59000    2017.2052   -715.84083    300664.37    14.921177 
   59500    2020.9376   -703.54246    296027.23    14.904071 
   60000    1836.1121   -691.19675     300363.6    14.838336 
   60500    1919.4822   -682.50357    293997.94    14.899067 
   61000    2022.3527   -722.31872    289332.12    15.037992 
   61500    2083.0736   -706.74073    300071.68    14.920617 
   62000     1899.637    -687.8442    291688.82    14.899856 
   62500    2068.2495   -704.43606    296500.43    15.138756 
   63000    1941.9779   -720.53329    294720.77    15.369068 
   63500    2077.6512   -753.31998    303156.82    15.522959 
   64000     1960.867   -720.36691    298296.06    15.313778 
   64500    2013.5866   -708.52222    300084.28    15.179058 
   65000     1943.101   -721.31076    298885.15     15.31731 
   65500    2009.4248   -656.72945     309785.5    14.833337 
   66000    2062.0057   -699.32843    299237.06    15.098587 
   66500    2183.6097   -667.88398    293458.86    14.874271 
   67000    1910.9164    -665.8482    301558.54    14.850626 
   67500     2180.952   -668.67734    293042.36     14.84265 
   68000    1970.6687    -674.4087    293049.41     14.88063 
   68500    1889.1667   -691.48612    299055.63    14.821861 
   69000    1971.7101   -671.63461    301872.02     14.85629 
   69500    1990.1573   -659.43846    309022.27    14.794935 
   70000    1854.9489   -667.76044    289637.66    14.840314 
   70500    2031.2604   -677.15899    298280.03    14.907477 
   71000    2051.4671   -653.85405    313484.89    14.804676 
   71500    1931.5472   -657.33062    302722.85    14.798519 
   72000    1925.8919   -657.26333    297057.11    14.873207 
   72500     1872.877   -653.96263    312347.64    14.821236 
   73000    1875.8934   -738.43544    302870.06    15.398712 
   73500    1878.7174   -746.67445    299700.42    15.471496 
   74000     2044.757   -731.93051    296931.36    15.520677 
   74500    1926.4724   -752.69145    283029.91    15.587189 
   75000    2043.6812   -733.24763    293919.85    15.351226 
   75500    2037.0073   -730.09527    298119.17    15.376636 
   76000     1867.704   -749.01153    300759.98        15.47 
   76500    2090.5822   -726.42965    298292.32    15.304265 
   77000    2002.1422   -663.42948     297144.2    14.897833 
   77500    2011.2095     -673.413    291623.21    14.894475 
   78000    2023.8509   -728.82728    294082.65    15.453779 
   78500    2108.9507   -755.18271    299911.48    15.552346 
   79000    2023.6242   -746.39409     300382.3    15.398148 
   79500    1995.8607   -748.02664    298503.56    15.571969 
   80000    2110.9242   -762.01185    310549.23    15.543675 
   80500    2050.1308   -762.13934    293405.73    15.612142 
   81000    1993.0713   -755.50805    302812.68    15.551983 
   81500    2021.2792   -757.55705    300599.76    15.570354 
   82000    2020.9628   -735.97027    301963.44    15.356949 
   82500    2054.8593   -703.55736    309395.16     15.11816 
   83000    1997.3331   -740.76764    304274.12    15.443075 
   83500    1973.5795   -769.62177    291902.35    15.609469 
   84000    2066.3473   -749.68569    299490.65    15.566033 
   84500    2069.6495   -693.71982     305857.4    15.183407 
   85000    2099.1903   -707.89135    306075.51    15.224979 
   85500    2011.1972   -743.80936    301454.66    15.456751 
   86000    2042.4211   -752.33305    291557.03    15.607784 
   86500    1936.0074   -752.38867    292355.38    15.518333 
   87000    1936.7029   -705.68995     308641.9    15.100327 
   87500    1953.7046   -722.91184    300383.47    15.141578 
   88000    1842.2447   -707.29262    306349.07    15.144115 
   88500     2059.199   -730.75056    291713.53    15.210084 
   89000    2071.4685   -725.60549    312699.52    15.007696 
   89500    2221.6895   -728.17544    304104.21    15.121461 
   90000     2008.965   -729.24958    301001.11    15.133116 
   90500    2034.9692   -736.25049    295677.49     15.13961 
   91000    1887.3996   -726.11068    305127.65    15.078088 
   91500    2064.1817   -730.62104    298434.46    15.115978 
   92000     1980.743   -730.64194    310009.92    15.053083 
   92500    1846.8375   -714.63391    301540.31    15.114743 
   93000    2053.2333   -719.22209    297905.24    15.242424 
   93500    1938.4536   -733.04043    290700.24    15.245706 
   94000    1906.0492    -731.0044    296985.95    15.229431 
   94500    2021.9376   -728.78263    302014.04    15.062772 
   95000    1944.1899   -733.74458    312547.61    15.016613 
   95500    1910.9783   -733.76094    309788.42    15.037667 
   96000    1920.9213   -727.37347    309375.89    15.061305 
   96500    1921.9277   -733.14389    290348.78    15.193418 
   97000    1963.0464   -745.30928     292834.1    15.139762 
   97500    2042.6327   -726.08437    300342.17    15.134856 
   98000     2085.425   -720.31179    296614.98    15.210425 
   98500    1894.5663   -701.99249    297988.87    15.174402 
   99000    2195.1268   -736.52272    300865.15    15.347705 
   99500     2058.672    -713.7999     302811.2    15.133442 
  100000    2056.2972   -710.71434    294274.11    15.195342 
  100500     1967.537   -712.40495    301725.96    15.142959 
  101000    2137.9082   -728.93454    290306.02    15.208265 
  101500    2024.5358   -722.23995    301524.85    15.131548 
  102000    1943.3081   -726.02008     296188.6    15.217971 
  102500    1743.4356   -715.74498    296173.85    15.186058 
  103000    1965.5322   -729.18218    300040.49    15.149286 
  103500    1909.3616   -735.31957    293910.07    15.190766 
  104000         2068    -715.5222    309919.62    15.099484 
  104500    2041.8391   -730.25264    296819.13    15.126894 
  105000    2016.5341    -754.4552    287455.15    15.198246 
  105500    2085.0208   -735.30534    299164.14    15.150062 
  106000    1993.2966   -757.69643    305489.96    15.567989 
  106500    1873.2432   -760.17956    296469.69    15.626846 
  107000    2007.6012   -766.14662    290185.17    15.670899 
  107500    2012.4347   -774.59185       297942    15.652575 
  108000    1996.4511   -759.01845     301150.1    15.611345 
  108500    2072.1254   -748.06521    308678.59    15.545249 
  109000    1813.6246   -739.34154    307049.04    15.580983 
  109500    1863.8011   -750.93597    301647.97     15.59332 
  110000    2045.8835   -759.63108     290354.2    15.674985 
  110500    1986.6778    -751.6065    295368.49    15.649045 
  111000    2135.3092   -749.76003    300575.45    15.653243 
  111500    2057.3148   -746.22842    307222.02    15.614485 
  112000    1834.2821   -738.16667    308851.23    15.580462 
  112500    1960.0763    -749.6297    308047.19    15.591621 
  113000    1795.0426   -754.93721    294657.62    15.655232 
  113500    2234.6031   -752.42252     305023.2    15.639718 
  114000    1899.6857   -754.66002    300525.54    15.622432 
  114500    1913.2187   -761.75696    293966.23    15.635072 
  115000    1982.0004    -747.4867    311888.98     15.53149 
  115500    2017.9015   -747.79093    310355.45    15.597046 
  116000    2007.5326   -751.31518    305331.41    15.627261 
  116500    1927.9904   -755.38595    301012.16    15.628183 
  117000    2168.4396   -754.04553     299583.4    15.656827 
  117500    1947.8364   -744.19212    306434.31    15.594162 
  118000    1958.8527   -755.47204    301468.67    15.653348 
  118500    1982.9073   -752.34392    290936.87    15.647133 
  119000    2120.5551   -753.31728    308250.27    15.606925 
  119500    2113.5619   -758.83974    307333.31    15.552162 
  120000    1968.5157   -776.08391    304678.19     15.58823 
  120500    1907.8532   -784.19464    304194.02    15.664615 
  121000    2016.9248    -795.1454    311615.36    15.577291 
  121500    1945.5299   -798.60992    302409.94    15.603354 
  122000    2006.7304   -793.50867    307962.16    15.603935 
  122500    2190.3417   -777.49195    311249.28    15.632964 
  123000    1997.6057   -783.86392    302252.19    15.659648 
  123500    2096.8593   -793.42189    312310.95    15.575516 
  124000    2161.3943   -800.05283    297299.92    15.621196 
  124500    2081.5661     -802.253    296386.98    15.614976 
  125000    1925.7506   -785.24836    295990.83     15.65318 
  125500    1849.1459   -796.88729    286728.39     15.69125 
  126000    2006.0141   -785.04511    315124.76    15.524744 
  126500    2106.4414   -799.18503    291947.22    15.656844 
  127000    1992.4197   -798.14193    302103.43    15.608241 
  127500    2194.0685   -797.69706    295310.29    15.653378 
  128000    2028.3114   -765.41437    306201.39    15.622024 
  128500     1958.762   -756.26164    300785.72     15.60383 
  129000    2044.4384   -755.69561    308280.93    15.560759 
  129500    1885.1105   -787.75106    306835.42    15.606437 
  130000    1963.5605   -801.30356    286990.87    15.663926 
  130500    1947.2474   -791.16905    298730.37    15.681132 
  131000     1945.104   -791.79358    309847.97    15.509938 
  131500    2153.6133   -800.71713    302095.59    15.592624 
  132000    1872.4787   -797.20941    301681.08    15.603669 
  132500    2037.2935   -796.00925    291498.38    15.689054 
  133000    1908.6047   -795.87585    300132.85    15.629746 
  133500    1870.0118   -787.65089     306139.2    15.626975 
  134000    1993.3958   -793.16271    292140.48    15.703191 
  134500    2071.2339   -790.34962    294795.82    15.714902 
  135000    1939.7739   -795.30593    301402.16    15.633763 
  135500    2011.1421   -769.38442    294232.44    15.684419 
  136000    2021.1268   -762.71673    308604.74    15.587325 
  136500    1848.7284   -752.14592    297996.76    15.427448 
  137000    2071.1253   -736.53725    294637.24    15.234716 
  137500    1983.2343   -714.43074    303512.79    15.093379 
  138000    2011.1271   -732.29817    294041.99    15.202377 
  138500    2157.8096    -707.0257    310484.67    15.021648 
  139000    2180.4734   -723.42815    296482.48    15.176883 
  139500    1831.5274    -711.0839    298929.08    15.118621 
  140000    1974.8155    -698.5359    298401.21    15.110211 
  140500    2008.7504   -729.93115    296157.56    15.216213 
  141000    2005.5195   -696.47179    302685.72    15.158132 
  141500    2122.2286   -689.57527    308314.51    15.050688 
  142000    1909.0778   -683.76497    300012.87    15.028232 
  142500     2007.069   -719.54708     286662.3    15.267259 
  143000    1929.4208   -669.62391    295877.77     14.85599 
  143500    2022.8981   -650.49447    311199.36     14.75928 
  144000    1884.0473   -641.01969    299381.14    14.815841 
  144500    2166.8187   -660.29632    296783.41    14.868449 
  145000    1932.0821   -664.78715    291625.39    14.905098 
  145500    1932.3404   -696.86947     302683.6    15.048508 
  146000    1966.1103   -714.57258    294533.38    15.145994 
  146500     1966.687   -648.40355    312223.63    14.735613 
  147000    2037.7887   -708.90365     308552.5    15.027832 
  147500     1800.034   -703.14178    301290.94    15.140224 
  148000    1813.1313   -662.66049    284174.18    14.850059 
  148500    1853.3079   -717.65442    294844.56    15.200545 
  149000    1994.7179   -735.36591     289132.8    15.256696 
  149500    1972.5841   -742.67055    303169.77    15.119102 
  150000    1801.3874   -749.58026    291847.38    15.192049 
  150500    2068.5979   -763.25697    292789.17      15.1985 
  151000    1992.9576   -746.78589     297571.9    15.160228 
  151500    1930.8522   -751.86842     299713.4    15.138142 
  152000    2033.5639   -759.44788    293572.28      15.1621 
  152500    2162.6439   -761.37187    296960.09    15.163337 
  153000    1927.8297   -751.02947     295202.1    15.225359 
  153500    1973.1039   -747.77903    304935.81    15.135397 
  154000    1904.3835   -737.53999    304152.15    15.110889 
  154500    1856.0673    -720.6792    300475.53    15.116384 
  155000    2083.0391   -734.73689    302968.29    15.129911 
  155500    1954.7938   -761.51745    291804.36    15.205395 
  156000    1841.4548   -749.71942    298289.02    15.124697 
  156500    2052.4735   -754.21996       299496    15.171815 
  157000    2067.3847     -762.487     294247.9    15.207494 
  157500    1984.7728   -738.17205    300959.26    15.142599 
  158000    1988.3601   -725.20355    300347.99    15.142717 
  158500    1949.0761   -732.18146    301000.55    15.183848 
  159000    1880.2176   -709.60021    303864.07    15.081784 
  159500    2108.3577   -695.02832     302851.6    15.185996 
  160000    2033.1447   -705.77503    292885.51    15.187771 
  160500    2008.5191   -638.15148    310516.09    14.822924 
  161000    1983.9284   -769.68743    289415.56    15.713692 
  161500    1815.9949   -758.37734    287303.07    15.678006 
  162000    1939.4511   -763.10964    294340.54    15.649274 
  162500    1931.6011   -763.03524    305051.53     15.58714 
  163000    2083.1588   -763.54815    287336.17    15.669331 
  163500     1882.949   -756.30792    283591.49    15.656365 
  164000    1924.5574   -764.44684     307353.7    15.532357 
  164500    1965.7537   -750.55275    303207.74    15.640081 
  165000    1830.6575   -779.11958    285566.29     15.70369 
  165500    1985.1849   -644.40917    315315.21    14.735358 
  166000    1932.4003   -650.71591    303779.63    14.703937 
  166500      2052.01   -645.09546    303549.27    14.706991 
  167000    2134.1317   -665.65405    288248.49    14.724181 
  167500     2121.292   -674.17436    292510.96    14.708654 
  168000    1974.8948   -667.85791    289497.98    14.730949 
  168500    1983.0977   -656.80688    316465.25    14.667941 
  169000    2084.0988   -652.65801    325259.35    14.652191 
  169500    2061.2697   -640.02937    313266.23     14.69643 
  170000    1998.2157   -662.17426    297003.08    14.698829 
  170500    2018.1055   -659.76094    304143.05     14.69288 
  171000    1994.8823   -664.87426    310332.07    14.679821 
  171500    1849.8772   -658.37683    313791.28    14.664594 
  172000    1947.2028   -676.55548     280335.6    14.774203 
  172500     1970.252   -657.10896    303268.24    14.686191 
  173000    2178.4445   -661.17309    302360.73     14.69184 
  173500    2006.1255   -645.26035     294619.4    14.712744 
  174000    2009.0705   -649.85794    303531.37    14.716226 
  174500    1980.1675   -656.77679    293200.75     14.79785 
  175000    1848.1747   -654.11523     296345.6    14.789512 
  175500    2061.4033   -647.26398    293839.68    14.770396 
  176000    2181.8061   -644.56016    307542.16     14.78295 
  176500    1788.1439   -674.57526    297386.56    14.894987 
  177000      1961.13   -640.08744    325160.42    14.645511 
  177500     1892.102   -664.17339    312480.38    14.671225 
  178000    2042.5868   -651.76121    302894.77    14.727474 
  178500    1917.5614   -646.64894    306542.18     14.76821 
  179000    2110.4066   -699.74226    301509.13    15.071956 
  179500    2074.9672   -671.68501    300045.76    14.940436 
  180000    1978.1315    -703.8668    300825.01    15.242927 
  180500    1936.2147   -661.62976    284094.69    14.793535 
  181000    1890.6571   -671.69876    309383.53    14.954841 
  181500    2099.0509   -702.28976    304700.72    15.059246 
  182000    2085.6395   -767.42321     285692.5    15.697445 
  182500    2093.2487   -761.35652    303587.39     15.53546 
  183000    1927.5963   -744.86161    302483.59    15.467243 
  183500     2071.998   -780.45239    307902.62    15.658076 
  184000    2065.6161   -755.05177     307254.6    15.503378 
  184500     1892.182   -756.09749    299532.28    15.627142 
  185000    2131.5854   -727.76497    301157.44    15.359836 
  185500    2115.9105   -654.52928    296346.02    14.793499 
  186000    1964.7976   -652.67454    300605.06    14.705194 
  186500    1880.8612   -642.48875    312958.02     14.68776 
  187000    1763.3392   -650.24019    295285.24    14.739029 
  187500    1991.0031   -652.17326    304759.91    14.702797 
  188000    2034.2141   -660.33609    295157.83    14.879883 
  188500    2113.8399   -648.02945    284693.04    14.864216 
  189000    2106.0601   -673.84215    302513.07    14.953955 
  189500    1892.0317   -748.81903    301089.63    15.605577 
  190000    1970.2451   -693.82426    297817.14    15.249908 
  190500    2027.8378   -699.81286    290812.73    15.182882 
  191000     2055.194   -686.06429    308348.65    15.082103 
  191500     1921.409   -693.98499    301209.02     15.19467 
  192000    2065.5663   -764.06248    302996.59    15.639613 
  192500    2063.0337   -745.56641    305185.04    15.486426 
  193000     2081.314    -753.7595    296277.92    15.702786 
  193500    1930.8179   -736.96728    303382.06    15.431358 
  194000    1991.8095   -702.50178    298388.75    15.164625 
  194500    2034.8544   -658.56447    303066.13    14.828975 
  195000    1896.2963   -707.57805     294242.4    15.180974 
  195500    1884.0091   -694.44722     304780.2    15.136274 
  196000    1971.2037   -709.34509    294458.05     15.21973 
  196500    1983.8804   -708.40461    296536.19    15.116729 
  197000    1855.0548   -720.44297    296712.44    15.181662 
  197500    1986.8597   -717.30765    299995.91    15.102375 
  198000    2044.5168   -763.11175    305632.02    15.506267 
  198500     1914.161   -701.09588     306046.6    14.966451 
  199000    1960.0354   -714.56023     306545.4    15.014166 
  199500    2006.1504   -721.72137    305943.34    15.066701 
  200000    2089.1949   -727.00354    298165.18    15.250929 
  200500    2093.5703   -699.43373    302497.24    15.094291 
  201000    1840.4709   -776.98561    298129.94    15.680696 
  201500    1927.3251   -672.60481    300834.74    14.700542 
  202000    1939.6106   -763.33828    293606.49    15.388281 
  202500    2061.6851   -746.77316    301157.22    15.295941 
  203000     2056.989    -775.7654    302775.97    15.651408 
  203500    2029.0486   -758.25757    304909.14    15.482412 
  204000    2043.6987   -725.46897    298729.33     15.14231 
  204500     2045.427    -748.6488    298944.88    15.266625 
  205000    2179.4869   -702.61281    306253.84    15.012819 
  205500    1980.5974   -721.81111    299684.89    15.154923 
  206000    2057.0514   -734.51641    300420.79    15.182586 
  206500    2020.8213   -764.23829    292332.95    15.607064 
  207000    2094.1475   -766.17666       303863    15.538542 
  207500     2042.556   -775.40586    306250.02    15.668655 
  208000    2046.4974   -748.94901    304838.46     15.41566 
  208500     1868.588    -786.8047    285299.79    15.730963 
  209000    2127.0834   -779.86705     310192.4    15.669173 
  209500     1942.848   -789.02855    306077.52     15.68795 
  210000     2135.538   -796.93337    305683.37    15.698809 
  210500    1942.1585   -787.55389    311728.67    15.665797 
  211000    2146.2264     -764.081    283456.44    15.638918 
  211500    1879.4997   -761.87645    296541.45    15.633752 
  212000    2112.2666   -764.29668    305555.95    15.656138 
  212500    1983.2488   -749.24843     304177.9     15.56292 
  213000    1976.2713   -742.66071    304540.58    15.558937 
  213500    1855.1398   -744.88418    289669.54    15.653938 
  214000    2033.1033   -758.64488    298850.71    15.675073 
  214500    1842.7108   -765.82443    288582.58    15.711784 
  215000    1883.6643   -765.18902    287163.51    15.667651 
  215500    1990.4192   -762.28142    302981.69    15.602719 
  216000    1932.4052   -779.78757    309359.03    15.650535 
  216500    1880.2551   -688.06744    302737.66    15.089931 
  217000    2105.1225   -764.12549    288672.78    15.744336 
  217500     2024.663   -776.68125    285619.05    15.762788 
  218000    1945.5402   -729.51174    297047.99    15.388772 
  218500    2062.5927   -718.49295    297827.66    15.291141 
  219000    2162.5939   -708.65774    298786.77    15.105153 
  219500    2099.4982   -698.40471    306930.57    15.032035 
  220000    1880.0343    -705.0781    295574.29     15.17993 
  220500    2043.1516   -696.18732    302922.96    15.055808 
  221000    2097.3197   -695.07527    309036.87    15.032147 
  221500    1946.6646    -708.8607    285743.57    15.208443 
  222000    2046.5498   -663.87122    299310.23    14.809895 
  222500    1978.5103   -697.14351    306612.68    15.028537 
  223000    1982.5433   -704.57236    300075.48    15.055293 
  223500    1868.2874   -715.15637    291564.28    15.208784 
  224000    1910.3835   -706.17615    299119.87    15.136827 
  224500    1955.9876   -688.82885    299370.58    15.081936 
  225000    2052.5749   -703.15152    301850.34    15.006755 
  225500    1980.1574   -690.63905    302391.08    14.976177 
  226000    2054.9836   -697.19252    308577.86    14.974293 
  226500    2014.4303   -680.92342       308082    14.951269 
  227000    1950.7384   -699.82656    297203.76    15.120698 
  227500    1747.8273   -746.09039    296170.03    15.634952 
  228000    2111.0527   -717.90804    300906.68     15.34732 
  228500    1938.6032   -710.29904    297372.59    15.401907 
  229000    2017.2513   -717.37692    297381.43    15.472809 
  229500    1982.4221   -738.08861    295007.28    15.678187 
  230000    2055.8668    -698.6906    299035.66    15.345949 
  230500    1951.5502   -743.40325     302470.2    15.515169 
  231000    2040.4434   -750.55074    300758.99    15.646941 
  231500    1972.3218    -753.0606    294344.24     15.69287 
  232000    2005.9451   -753.25686    294510.87    15.732358 
  232500    1851.7103   -748.73651     291531.7    15.710686 
  233000     2091.867   -675.64102    305828.79     15.00851 
  233500    2089.6444   -688.47531    298039.75    15.287805 
  234000    2015.7983   -750.18603    300578.64    15.672946 
  234500    1978.3704   -757.70547    295677.68    15.721291 
  235000    2006.9508   -756.43501    297450.04    15.683854 
  235500    1920.8885   -731.03708    300104.43    15.549833 
  236000    2080.5534   -738.28955    305381.89    15.473984 
  236500    2107.0601     -736.657    303920.27    15.508761 
  237000    2001.4477   -759.32492     303460.7    15.578926 
  237500    2145.4127   -745.82389    297157.45    15.607475 
  238000    2089.1052   -748.63653    305878.44    15.578284 
  238500     2111.031   -743.21309    302084.51    15.513612 
  239000    2133.4616   -738.24037    305765.35    15.544036 
  239500    2054.5589   -748.03576    300006.76    15.685073 
  240000    1866.0753   -758.54189     299209.8     15.66048 
  240500    1965.2224   -761.09652    298322.75     15.66533 
  241000     1788.202   -685.11653    300330.74     14.99302 
  241500    1938.0871   -648.48494    286455.49    14.804947 
  242000    1935.1132   -639.10665    307392.85    14.732984 
  242500    1993.7022   -642.78717    291492.44      14.6838 
  243000      1991.72   -640.18088    296798.63    14.697523 
  243500    1986.3421    -645.5493    300119.33    14.711668 
  244000    1948.6241   -646.24168    306194.33    14.732362 
  244500    1947.5457   -645.27614    298146.77    14.750098 
  245000    2001.2401   -663.19435    296144.92    14.812606 
  245500    2081.2005    -624.6178    311852.38    14.678181 
  246000    2053.3813   -634.73499    291233.63    14.699015 
  246500    2059.1863   -627.36046    304055.82    14.701163 
  247000    2051.1305   -640.08691    300234.59    14.690476 
  247500    2066.1683   -638.74039     307802.2    14.667589 
  248000    2091.9168   -665.48708       301811    14.836091 
  248500    2009.6579   -652.08272    297474.62     14.79276 
  249000    1963.2191   -638.58592     308381.3    14.695131 
  249500    1915.3366   -646.92116    292659.15    14.787589 
  250000    2071.7157   -658.47934    302281.46    14.756474 
  250500    1913.2092    -666.3986    291431.73    14.819016 
  251000    2076.7296   -642.98325    291588.21    14.695702 
  251500    1969.9699   -624.31569    313120.89     14.65583 
  252000    2063.7063    -629.6433    301696.45    14.711375 
  252500    1948.6056   -646.86929    290393.44    14.718207 
  253000    2059.6346   -630.55653    318138.82    14.655433 
  253500    2047.2908   -636.90588    302443.81    14.662055 
  254000    1949.9209   -646.79321     300419.7    14.712268 
  254500    2047.8777    -678.0721    309815.46    14.924768 
  255000    2163.1148   -630.81951    315388.69    14.676545 
  255500    2112.8877   -649.95302    289784.18    14.830261 
  256000    2019.9652   -631.42231    314056.68    14.672385 
  256500    1747.1002   -641.26028    304663.19    14.729238 
  257000    2018.7216   -630.20445    313085.94    14.668879 
  257500    1736.1358    -644.5661    294949.51    14.774064 
  258000    1870.2351   -626.65787    325618.09    14.606186 
  258500    2198.6517   -670.98795    284250.02    14.840582 
  259000    1838.5183   -646.46198    292861.86    14.790341 
  259500    1964.6659   -644.59091     287057.8    14.796874 
  260000    2027.9585   -647.90535    282600.19    14.734166 
  260500    1957.9932   -635.07257    297589.57    14.697393 
  261000    2002.7395   -625.45331    316211.93    14.646345 
  261500    2071.0724   -631.67221    302440.34    14.692745 
  262000     1993.671   -651.36014    290111.26    14.743761 
  262500     2060.783   -644.88067    293009.08    14.729098 
  263000    2154.4891   -632.06034    302291.37    14.728271 
  263500    1851.4234     -615.936    323480.39    14.636902 
  264000     1991.916   -646.93913    283289.23     14.75053 
  264500    2058.7178   -648.92533    281701.42    14.772893 
  265000    2020.7827   -639.77952    302165.34    14.702078 
  265500    2034.8418   -654.02149    305716.54    14.777184 
  266000    1896.8472   -636.93373    290307.33    14.729673 
  266500     2022.159   -625.80571    329182.95    14.619207 
  267000    1975.4062   -688.25283     297421.6    15.004614 
  267500    2004.7772   -637.83134    285813.11    14.726941 
  268000    1987.9495   -643.17124    300785.92    14.772739 
  268500    1799.3303   -628.92576    295771.12    14.645927 
  269000    1916.0011   -673.97934    304371.43    14.922089 
  269500     2123.689   -632.72812    308285.64    14.631475 
  270000     1915.696   -641.56294    309513.37    14.665669 
  270500    2092.1883   -649.12305    299004.45    14.751257 
  271000    1896.8817   -624.51866    305700.89    14.652672 
  271500    1875.1995   -688.49948     304234.6    14.970925 
  272000    2078.7778   -704.05888    298282.46    15.013892 
  272500     2110.172   -702.24079     298453.2    15.031259 
  273000    1826.2556   -665.04024    303212.88      14.8854 
  273500    2013.4993   -655.41994    300466.98     15.00194 
  274000    1978.4323   -592.64283    300242.75    14.706138 
  274500    1989.1815   -601.72182    309384.72    14.690947 
  275000    1938.0575   -594.84424    296109.14    14.720871 
  275500    1988.9582   -590.23305     301155.4    14.729959 
  276000    2101.0001   -603.87392    288153.68    14.761339 
  276500    2051.8623   -591.54136     292114.5    14.719912 
  277000    1846.5471   -590.72113    292329.12    14.706346 
  277500    1970.7535   -589.97388     285843.9    14.691155 
  278000    2029.4639   -625.51067    306208.42    14.933403 
  278500    1987.5679   -659.59173    302556.36    15.120993 
  279000    2025.1983   -649.43769    304436.31    15.124448 
  279500    2008.5088   -668.68491    290750.11    15.197769 
  280000    1956.4263   -724.34536    290190.73    15.694369 
  280500    1920.9562   -698.33336    297951.39    15.467798 
  281000    2121.4819   -675.97702    300987.63    15.299773 
  281500    1906.7802   -637.98976    301281.19    15.086246 
  282000     1960.766   -657.57921    297264.26     15.23427 
  282500    2040.4546   -710.81799    298952.15    15.584947 
  283000    2310.3529   -721.09423    300554.72    15.513834 
  283500     1935.351   -751.41831    292520.63    15.826824 
  284000    2121.7457   -737.88503    299847.21    15.659555 
  284500    1851.8937   -678.83329    292387.51    15.187011 
  285000    2246.0539   -692.00044    305822.42    15.339573 
  285500     2068.503   -685.12769    302967.66    15.246062 
  286000     1984.227   -713.42833    296535.93    15.488066 
  286500    2152.1381    -762.6153    288166.59    15.812708 
  287000    2049.5084   -745.82193    301076.66    15.646995 
  287500    1965.3105   -755.58973    303980.12    15.663956 
  288000    1831.4983   -738.18764    294856.79    15.383699 
  288500    1992.0216   -702.28471    303203.68    15.199379 
  289000    2009.0834   -767.50517    294672.98    15.752153 
  289500     2012.667   -725.94179    297144.55     15.31415 
  290000    2121.9341   -790.73171     261589.8    15.809139 
  290500     1996.113   -774.54928    295841.99     15.78016 
  291000    1999.1091   -748.28661    300414.36    15.475166 
  291500    2004.8403   -748.09841    299102.95    15.559397 
  292000    2076.1728   -748.50664    302508.17    15.526869 
  292500    2022.3418   -751.99595     303008.1    15.622137 
  293000    2095.1984   -690.80042    307029.45    15.028875 
  293500    1829.1514   -758.56929    284240.17    15.636118 
  294000    2094.7947   -732.42116    304731.74    15.355506 
  294500    1785.1778   -764.76157    289660.83    15.694448 
  295000    1922.1692   -683.75882     298713.6    15.040833 
  295500    1852.4299   -640.46849    297888.83    14.811262 
  296000    2061.4903   -654.68357    295514.29    14.836772 
  296500    1924.2718   -705.33807    301616.77    15.050648 
  297000    1998.5109   -636.63365    308125.13     14.66637 
  297500    1960.4471   -726.12226    298657.87    15.145782 
  298000    1995.1273   -765.48001    299314.88    15.291725 
  298500    1974.4406   -769.02224    299643.65    15.256195 
  299000    1876.2077   -762.39952    297649.85    15.263196 
  299500    1888.8393   -773.73485    296772.18    15.265198 
  300000    1860.5181   -755.97175    303913.82    15.229011 
  300500    1940.1496   -751.77075    299224.17    15.431395 
  301000    1796.6277   -735.76309    297864.88    15.199817 
  301500    1906.4028   -646.14476    309681.43    14.646281 
  302000    1961.1943   -646.65675    299696.85    14.711668 
  302500    1926.8048   -739.67658    298288.93    15.287714 
  303000    2207.2241     -703.974     302102.3    14.880784 
  303500    2064.1664   -708.74713    297125.23    14.913548 
  304000    2048.2662   -686.66329    306784.24    14.812339 
  304500    1838.1486   -739.09194    298379.66    15.063765 
  305000    2121.4079   -774.20316     293134.5    15.336182 
  305500    2051.0956   -768.53324     305116.2    15.201844 
  306000    1979.9727   -769.54701    299215.62     15.24733 
  306500    1955.9712   -764.74134    301802.64    15.274542 
  307000    2017.4042   -754.51716    299618.85    15.367969 
  307500     1980.935   -728.44823    296706.43    15.220924 
  308000    2007.3836   -712.96475     288040.1    15.075862 
  308500     2238.433   -706.32621       296828    14.998661 
  309000    2014.2071   -703.33734    295624.04    15.041099 
  309500    1932.4642   -679.76104    305117.62    14.867603 
  310000    1849.0371   -677.94996     294794.5    14.881154 
  310500    2075.4771   -664.14238    288297.29    14.790352 
  311000    2053.7755   -650.81249    295247.03    14.749065 
  311500    1862.7516   -648.89474    289414.85    14.747349 
  312000    2065.8866   -652.79903     293768.8    14.742882 
  312500    2054.1999   -670.55146    298299.02     14.82274 
  313000    1958.0516   -638.32943       309471    14.627996 
  313500    1965.5239   -713.87785    294762.93    15.069072 
  314000    1981.3349   -721.95828    301272.27    15.162888 
  314500    2166.6178   -755.94137    298763.75    15.375579 
  315000    1975.7132   -750.87081    301993.49    15.357043 
  315500    1995.2333   -750.60568    303518.45    15.530024 
  316000    2032.9944   -738.86056    301772.31    15.358671 
  316500    1984.7311   -735.92103    297251.28    15.326529 
  317000    1995.4924   -646.12478    302060.43    14.680941 
  317500    1957.4911   -646.98424    303776.39    14.735085 
  318000    2006.1447   -633.16472    309187.07    14.688219 
  318500    2040.5683   -651.19685    306484.54     14.76749 
  319000    1998.2787     -653.965    301886.48    14.848335 
  319500    2137.5536   -756.37933    294059.19    15.702828 
  320000    2023.1248    -749.9761    303129.17    15.661168 
  320500    2045.9019   -725.21938    301824.25    15.422996 
  321000    1902.6825   -753.43842    301429.97     15.66675 
  321500      2123.16   -756.60454    310686.81    15.657792 
  322000    1888.4255    -757.1785    297861.15    15.728023 
  322500    1976.3394   -756.67654    302636.26    15.732464 
  323000    2296.4705   -757.53262    302741.36    15.774505 
  323500    2022.8023   -761.63299    293927.86    15.785583 
  324000    2148.3735   -750.97449    293767.48    15.799734 
  324500    2035.1477   -747.14904    297555.03    15.749917 
  325000    1830.9179   -752.96344    304045.92    15.736164 
  325500     2074.369   -764.06112    289320.58    15.775501 
  326000    1950.0309   -741.55527     294843.6    15.565078 
  326500    1864.7225    -766.5204    290721.44    15.728409 
  327000    2055.2967   -781.27538    303854.13    15.771015 
  327500    2053.3527   -724.44148    300755.82    15.444975 
  328000    2190.2248   -751.16662    302612.31    15.542758 
  328500    1923.1915   -676.49317    298732.92    14.992766 
  329000    2220.0809   -669.48461    303556.17    14.847118 
  329500    2155.8784   -732.31549    303613.64    15.302626 
  330000    1984.1802   -694.66371    307948.62     14.95917 
  330500    2150.6456   -698.51751    308074.89    14.860807 
  331000     2134.754   -762.55182    302473.95    15.277277 
  331500    1966.0511   -765.45888    299381.06    15.287625 
  332000    1785.0324   -753.12026    296528.69    15.464744 
  332500    2058.1931   -715.76408    298075.97    14.969531 
  333000    1922.8821   -691.49949    301962.02    14.888743 
  333500    1944.9395   -751.62272     297612.9    15.345509 
  334000    2129.5457   -761.67999    297101.24    15.371365 
  334500    2231.6245   -655.20951    305073.04    14.651892 
  335000    1994.3375   -637.03268    294509.31    14.738057 
  335500    2171.5584   -623.77125     318789.7    14.680056 
  336000    2071.3548   -672.28151    301165.31    14.862415 
  336500    2019.0987   -750.45343    305597.03    15.236133 
  337000    1885.7976   -772.01572    286726.69    15.417766 
  337500    2194.5111   -762.00967    305337.09      15.2604 
  338000     1991.376   -775.88819    291994.93     15.37137 
  338500    1903.1158   -763.19643    301753.66     15.25364 
  339000    1890.9657   -773.70187    297997.28    15.274197 
  339500    1974.5206   -775.01694     298653.6     15.28078 
  340000    2112.0466   -757.29302    306754.35     15.28405 
  340500    2050.4442   -752.14644    301855.48    15.339748 
  341000    2080.6073   -761.81864    296166.57    15.481164 
  341500    1900.5188   -770.67488    288201.01    15.756488 
  342000    2080.8098   -753.17176    303897.74     15.66302 
  342500     2007.432   -763.29421    298632.57    15.675017 
  343000    2003.1199   -737.57261    300695.19    15.483526 
  343500    2163.6374   -658.13113    291294.99    14.839849 
  344000    1870.8851   -653.94514    302149.36    14.909379 
  344500    2045.8879   -716.79689    301226.12    15.222279 
  345000    1817.0267   -676.50194    303655.75    14.990635 
  345500    1897.7865   -730.44872    300209.15    15.355739 
  346000    1907.3765   -638.15769    294532.11    14.787933 
  346500    1821.9915   -653.54865    286170.37    14.781055 
  347000    2048.8469    -719.1364    293680.03    15.088946 
  347500    2006.4986   -645.37868    294799.48    14.685271 
  348000    2006.8954   -646.60457    300160.43     14.69013 
  348500    2063.2944   -647.09556    293707.72    14.761875 
  349000    2229.6382   -702.12624    300873.49    14.939935 
  349500    1957.5956    -694.6733    300881.03    14.964621 
  350000    1876.8862   -666.83622    298904.48    14.802033 
  350500    1959.0467   -629.86844    319993.91    14.625851 
  351000    2176.1002   -750.71757    300931.38    15.384828 
  351500    2120.9919   -748.42761    303467.22    15.365856 
  352000    1931.8827   -780.78382    295549.93    15.714602 
  352500    1992.3845   -790.72762    307263.88     15.69309 
  353000    1991.6653    -787.5359    314818.57    15.746269 
  353500    2107.7409   -804.36036    289783.29    15.798716 
  354000    2091.0147   -794.13353    298304.61    15.770337 
  354500    1940.0362   -792.45205    315772.75    15.694277 
  355000    1899.1797   -800.63808    281563.02    15.831251 
  355500    1858.5164   -796.94067     295616.1    15.781526 
  356000    2251.0927   -798.75542    271044.51    15.815087 
  356500    1882.9262   -792.05895    311815.32    15.702465 
  357000      2038.91   -791.82469    308239.34    15.710972 
  357500    2024.4156   -792.93027    281428.81    15.775343 
  358000    1862.8861   -799.94592    301845.47    15.769651 
  358500    1925.5579   -789.65372    312820.01    15.643723 
  359000    2043.6989   -753.55462    300402.51    15.347116 
  359500    1949.3743    -752.6277    298457.36    15.384856 
  360000    2052.1274   -750.64891    303846.03     15.43241 
  360500    1976.1864   -760.67816    298986.46    15.419199 
  361000    1885.4495   -746.99819    306541.16    15.318451 
  361500    1973.4193   -689.79085    305248.47    14.854753 
  362000     1965.635   -752.47089    303395.77    15.416353 
  362500    2089.0566   -715.30532    294287.37    15.193024 
  363000    2085.8004   -725.43213    297108.82    15.155222 
  363500    2079.6818   -697.51752    301712.34    15.079717 
  364000    2036.2825   -709.69147    301019.17    15.170249 
  364500    2066.3664   -661.11841     292972.4    14.860886 
  365000    2121.5686   -643.86167    296785.94    14.728783 
  365500    2096.9053   -658.96624     293016.7    14.820049 
  366000    1964.0822   -697.32961    296368.01    14.950476 
  366500    2071.6811   -789.37328    295209.22    15.357397 
  367000    1896.7049   -730.54505    300011.14    15.146692 
  367500    1883.8562   -756.89519    296739.87    15.456797 
  368000    1892.4092   -739.44341    295264.03    15.514619 
  368500    1793.0292   -768.42446    307900.84    15.635819 
  369000    1923.5684   -667.35514    295880.22    14.812029 
  369500    1949.8953   -638.46129     308291.5    14.667547 
  370000     2069.288   -746.68045    294161.26    15.377867 
  370500    2115.1346    -702.2922    298837.59    15.165025 
  371000    1908.1902   -631.96464    304203.79     14.67149 
  371500    1896.9709   -762.95444    293635.37    15.345816 
  372000    2032.9083   -756.57128    308302.83    15.193673 
  372500    2052.0885    -759.0604    305070.59    15.185741 
  373000    1973.8512   -751.12809    306762.72    15.249441 
  373500    1989.3324   -759.65818    302065.17    15.309586 
  374000    1998.1315   -754.60504    304604.37    15.215178 
  374500    1990.6773   -708.00111    295553.58    14.877936 
  375000    2000.0997   -647.02359    297430.02    14.628557 
  375500    1903.7516   -655.55627    292890.62    14.663483 
  376000     1998.439   -638.69114    305944.04    14.630924 
  376500    1985.6321   -645.11209    296425.74    14.649889 
  377000     1843.407   -638.19755    298176.76    14.634998 
  377500    2110.9587   -644.99955    298170.85    14.662896 
  378000    1892.4121   -627.96907    306139.96    14.658165 
  378500    2095.3506   -641.77171    298999.57     14.69944 
  379000    1884.8768   -636.66435    305873.99    14.699402 
  379500    2052.0176   -659.88285    294698.35    14.843827 
  380000    2005.4889   -768.21694    297978.87    15.550176 
  380500    1953.1229   -741.00046       300542    15.423786 
  381000     2041.717   -697.60021    302076.42    15.022326 
  381500    1983.0313   -711.83797    294415.95    15.255406 
  382000    2032.5779   -705.81325    298742.58    15.055414 
  382500    1996.8208   -709.11299    297453.27    15.080767 
  383000    1967.2207   -755.41091    303560.78    15.290164 
  383500    2106.7156   -755.83031    305276.96    15.275184 
  384000    2015.3119   -771.75322    290800.33     15.37018 
  384500     2028.095   -759.40207    305200.27    15.276543 
  385000    1958.1496   -757.32936    294989.64    15.436133 
  385500    1868.0855   -741.47742    298460.98    15.290014 
  386000    1995.5122   -753.41025    304232.92    15.321655 
  386500    1853.4127     -753.785    302543.35    15.172307 
  387000    1934.8157    -745.4266    302816.76    15.167391 
  387500    2010.8023   -760.76998    302734.54    15.313683 
  388000    1999.5513   -696.84984     306435.7    14.998744 
  388500    2151.2716    -668.3441    300367.52    14.846864 
  389000    1886.2151   -766.77256    289575.53    15.830478 
  389500    1992.0134   -748.41418    305316.51     15.61302 
  390000     2171.631   -736.01257    298646.79    15.402309 
  390500    1924.5354   -704.22281    297598.91    15.041583 
  391000    1958.8734   -689.81868    302721.32    14.967864 
  391500    2124.3502   -708.88647    298249.62    15.075628 
  392000     2067.806    -744.2156    299453.08    15.326964 
  392500    1779.8302   -738.35253     300737.3    15.308851 
  393000    1986.3866   -685.06495    300829.04    14.865111 
  393500    2023.4353    -662.0604    288685.77     14.80237 
  394000    2108.5105   -637.84249    296430.83    14.666334 
  394500    1957.1716   -641.82102    293967.59    14.708043 
  395000    2027.0182    -646.3417     301164.9    14.747132 
  395500    1992.4014   -650.00755    299999.09    14.770682 
  396000    2048.4821   -699.37638    303571.92    15.061963 
  396500    1996.4526   -751.02187    299575.89    15.337903 
  397000    2186.6875    -737.2927    305834.07    15.373579 
  397500    2112.4419   -746.09365    300093.46    15.541789 
  398000    1944.1069   -779.64296     287649.7    15.801513 
  398500    2039.8274     -768.401    309213.69    15.626809 
  399000    1967.3096    -767.7225    283234.04    15.811061 
  399500    1974.1696   -757.01989    292773.19    15.751637 
  400000     2004.414   -708.30299    297830.75    15.153913 
  400500    2215.4525     -718.323    301901.05    15.260407 
  401000    2009.1118    -705.6676    302781.01    15.018499 
  401500    2120.8464   -689.46205    303651.45    14.902029 
  402000    1979.7535   -698.81812    301350.09    15.056495 
  402500    2079.8583    -730.7068    298944.21    15.226274 
  403000    1879.9601   -767.88952    296452.92    15.653479 
  403500    1864.8069   -789.69536    286941.33    15.788033 
  404000    2067.7298   -784.56407    286861.65    15.781955 
  404500    1963.0564   -770.89118       292291    15.772547 
  405000    1813.0243   -769.21467    304969.46    15.744553 
  405500    2122.3676   -764.36365    290006.69    15.709111 
  406000    1983.4621    -778.6085    306204.62    15.773158 
  406500    1908.9919    -746.4558    298499.58    15.636642 
  407000    1970.4303   -635.93216    302470.38    14.633636 
  407500    1911.3196   -645.97937    295266.81    14.698148 
  408000    1825.7972   -637.39762    296455.53    14.696366 
  408500    2144.8461    -643.5165    298051.08     14.68653 
  409000    2085.6319   -634.00302    302318.75    14.699032 
  409500    2057.5854   -645.92975    293714.96    14.789781 
  410000     2057.983   -711.23501    299040.48    15.287836 
  410500    1789.3833   -748.53246    302370.42    15.523528 
  411000     1910.309    -705.6745    297178.84    15.099261 
  411500    2042.8571   -729.77271    298832.28    15.141264 
  412000    1860.0505   -702.34302    292661.14    14.979818 
  412500    2052.0518   -659.55973     293622.3    14.785329 
  413000    2087.6671   -701.61935    301607.52    15.094853 
  413500     2270.747   -750.96084    304411.96    15.587655 
  414000     2091.808   -741.71257     302024.6    15.498615 
  414500    1876.3381   -689.65572    299331.37     15.13918 
  415000    2259.3489   -723.23633    304542.62    15.294312 
  415500    2233.2017   -710.89593    301871.06    15.444688 
  416000    2124.8236   -752.67422    298423.08    15.816343 
  416500    1880.8335   -746.60294    303841.77     15.63602 
  417000     1974.532   -716.78109     296312.9    15.231812 
  417500    2131.1013    -694.4527    312215.97    15.014322 
  418000    2069.8658   -698.06863    299788.87    15.158929 
  418500    2009.9773   -697.52019    301478.73     15.26715 
  419000    2051.8761   -707.22396    302059.02    15.335371 
  419500    1846.3446   -700.72013    295047.47    15.270743 
  420000    2133.2258   -755.31415    301559.15    15.556972 
  420500    2049.3236   -751.95443    303379.13    15.561543 
  421000    2029.1986   -675.83581    299662.65    15.073048 
  421500    2102.5482   -618.76539    309839.43    14.722228 
  422000    2050.5303   -726.22655    302164.93    15.362195 
  422500    1981.3899   -722.62217    300383.78    15.458707 
  423000    1910.4513   -698.98104     300809.9    15.285939 
  423500    2249.5218   -705.40776    301848.96    15.275557 
  424000    1944.8524   -674.08313    302742.45    15.147677 
  424500    2060.9446    -720.6145    299728.09    15.444306 
  425000    1800.7839   -682.22339    302071.06    15.198894 
  425500    1858.9407   -750.51784     304446.6    15.595334 
  426000    1933.4031   -644.88887     300716.9    14.745645 
  426500     2005.003   -655.59191    297860.85    14.914277 
  427000    2054.8418   -646.35434    295998.07    14.804323 
  427500    1868.0353   -613.99099    310325.14    14.642906 
  428000    2217.0627   -653.33014    289673.74    14.774032 
  428500    1811.0804   -661.77119    295428.17    14.877426 
  429000    1965.5256    -751.4421    300421.09    15.517531 
  429500     1884.988   -714.68514    296692.85    15.225689 
  430000    1868.7037   -678.63169    305269.85    15.036601 
  430500    1874.9867   -716.36937    296873.06    15.422862 
  431000    1931.8403   -708.20918    301105.38    15.330507 
  431500    2068.3175    -674.7897    303854.01    15.173195 
  432000    1938.3539   -707.72021    296228.01     15.48677 
  432500    2014.7007   -708.79171    300583.97    15.370316 
  433000     2074.201   -687.34445    304517.81    15.073986 
  433500    1866.1837   -653.82518    299194.53    14.908408 
  434000    2036.1076   -633.26164     304847.8    14.731732 
  434500    1917.9939   -633.01519    305534.93    14.677115 
  435000    1985.2398   -624.89575    312068.26    14.657038 
  435500    2076.9234   -725.85905    299388.75    15.299436 
  436000      2096.67   -760.12694    293820.13    15.481955 
  436500    2188.0001   -759.12069    297738.95    15.389834 
  437000    1994.3848   -777.80707    297085.12    15.791206 
  437500    1831.0721   -758.03051    300322.72    15.644707 
  438000    2030.6703   -763.16237     301602.5    15.624032 
  438500    1993.7378   -762.04587    302665.54    15.751426 
  439000    1919.0826   -760.67307    300786.42     15.77197 
  439500    1996.3021   -764.17736    294931.19    15.768536 
  440000    2011.8449   -702.35478       298100     15.14441 
  440500    2041.4973   -694.48563     302723.7     15.17369 
  441000    1885.9142   -746.47281    294793.84         15.7 
  441500     2001.794   -760.38908     303487.1    15.779191 
  442000    2062.2773   -744.74971    302707.76    15.607833 
  442500     2120.583   -760.63367    306342.12    15.781022 
  443000    1902.7818   -703.51752    302508.93     15.37371 
  443500    1987.6694   -694.09429    299605.11    15.366208 
  444000    1849.3552   -716.19882    303968.44    15.441964 
  444500    1926.0831   -717.53212    294459.95    15.235762 
  445000    2186.5412   -681.28534    308151.91    14.956263 
  445500    1977.0313   -716.16917    306015.54    15.127616 
  446000    2006.9317   -740.18865    299318.38    15.355143 
  446500    1889.3247   -720.09393    299744.22    15.146703 
  447000    1902.1188   -662.84125    294019.51    14.821494 
  447500    2131.7463   -608.98552    297988.45    14.654136 
  448000    2031.1498   -617.57737    294640.22    14.646831 
  448500    2054.4425   -662.46392     306107.6    14.860653 
  449000    2159.9215   -675.04992    299301.14    14.995761 
  449500    1914.8648   -668.04928    301590.08    14.853348 
  450000    2163.0311   -663.43096    310170.36    14.832694 
  450500     1908.396   -672.09238    296794.16    14.887008 
  451000    2146.1225   -613.68778    313262.56    14.583126 
  451500     2026.468   -620.91448    302586.21    14.663516 
  452000    2033.5441   -665.85446    300749.74    14.908699 
  452500    2148.2003   -618.89944    309937.13    14.613429 
  453000    1934.3181   -601.86663    297960.21    14.600092 
  453500    2066.5702   -624.32004    294491.72    14.632482 
  454000    1904.3547   -597.57522    313534.91    14.603904 
  454500    2060.7929   -599.92405    300408.72    14.603555 
  455000    2180.2719   -603.32632    302279.36    14.688409 
  455500     2014.307   -639.01126    295525.96    14.884083 
  456000    1988.5981   -632.53235    291801.57    14.709999 
  456500     1957.909   -604.22258    305218.62    14.584632 
  457000    1883.8151   -595.98498    323171.13    14.576916 
  457500    2067.4681   -622.28195     293273.7     14.68755 
  458000    2277.0094   -633.82132    291143.05    14.746022 
  458500    2171.2257   -606.03365    304119.79    14.590145 
  459000    2038.3445   -605.97756    297060.45    14.573875 
  459500    1913.2953   -674.29498    289281.73    14.923143 
  460000    1919.2958   -669.12353    293388.17    14.897479 
  460500    1913.4813   -666.25447    298383.21    14.898218 
  461000    1968.0001   -635.99898    287665.67    14.658095 
  461500    2101.3077   -683.83376    300768.01    14.933233 
  462000    1873.2751   -672.75956    295762.47    14.937972 
  462500     1991.018   -679.35073    294732.55    15.011259 
  463000    1958.6751   -735.12932    299420.71    15.307357 
  463500    1978.3152    -706.7337    298017.23    15.082072 
  464000    2084.3893   -680.34592    295185.31    15.108676 
  464500    1851.2687   -593.77265     305386.8    14.679646 
  465000    1838.0458    -594.7446    296460.63    14.803507 
  465500    1994.9629   -651.52955    296028.42    15.217198 
  466000    1729.5559   -617.51068    306175.36    15.038063 
  466500    1934.2749     -650.075    290256.59    15.201243 
  467000    2103.7983   -636.81377    307411.78    15.028072 
  467500    1838.5748   -578.08389       333468    14.696223 
  468000    1893.8064   -577.53764    315884.05    14.680377 
  468500    2100.6664   -654.53568    294236.66    15.242549 
  469000    1812.4903   -647.56986    296169.15    15.133612 
  469500    2029.1685   -641.16289    301599.44    15.074876 
  470000    1992.6744   -635.67841    304704.47    15.123857 
  470500    1970.3345   -583.20201    308707.87    14.745133 
  471000     2049.481   -635.87501    305233.55    15.092327 
  471500    2073.9626   -628.55457    304660.68    15.147418 
  472000     1844.979   -640.84776    298295.17    15.162343 
  472500    1985.1034   -623.09103    299290.57    14.948651 
  473000    2040.6989   -620.30424     308398.3    15.020372 
  473500    2222.7123   -646.99022    297956.07    15.194643 
  474000    2059.6877   -634.27803    303390.64    15.096824 
  474500    1959.9476   -580.09139    320776.64    14.689376 
  475000    1991.0155   -650.52731    301941.38    15.059076 
  475500    1936.3196   -661.44276    293350.23    15.043528 
  476000    2033.7713   -662.60897    299046.54    15.178742 
  476500    2025.9743   -692.28067    296911.59    15.234161 
  477000    2100.2865   -670.77302    303591.12    15.113459 
  477500    2083.2294   -763.00465     282198.2    15.887456 
  478000    2123.8934   -761.66681       300902    15.811009 
  478500    2004.9001   -768.92301    299416.75    15.764684 
  479000    1993.4831   -721.12611    305308.87    15.156927 
  479500    2236.3802   -688.23209    294972.05    14.930266 
  480000    2111.8507   -714.80545    304926.77    15.099439 
  480500    2044.3595   -664.63629    307065.25    14.808973 
  481000    1815.1556   -623.73244    293767.23     14.76731 
  481500     1842.473   -592.42463    295251.45    14.684557 
  482000    1980.0205   -593.31711    308621.84    14.688501 
  482500    1973.3913   -620.18648    300244.27    14.815764 
  483000    2113.4304   -665.61203     294544.2    15.070676 
  483500    1957.9069   -657.53629    300589.76    15.185381 
  484000     2236.706   -709.20722    302314.16    15.530812 
  484500    2007.8442   -707.62806    291256.71    15.621307 
  485000    1920.9918   -714.40022    300042.64    15.551495 
  485500    2224.7348   -715.88119    301921.35    15.526954 
  486000    2059.7521   -718.47731    304707.42    15.474803 
  486500    1936.1236   -705.32284    296841.61    15.552704 
  487000    1997.5934   -696.79226    298123.04    15.582026 
  487500    1984.1285   -697.02346    299314.81    15.652307 
  488000    2181.5714   -696.42577    297717.67    15.598055 
  488500    1904.5373   -696.67275    303425.84    15.483506 
  489000    2181.9648   -698.72245    308806.36    15.384866 
  489500    2154.9884   -685.40326    305934.87    15.343923 
  490000    1895.3385   -734.41419    294722.65     15.67206 
  490500    1991.9401   -714.69172    298923.28     15.32491 
  491000    1842.0716   -687.49875    297388.25    15.053097 
  491500    1991.4287   -652.84812    307070.41    14.905423 
  492000    1799.3282   -621.89462    292564.66    14.795867 
  492500    2120.4976   -609.19952    293876.31    14.612824 
  493000    2060.8398   -604.90912    311015.26    14.592505 
  493500    2056.7513   -599.48506    300780.29    14.698517 
  494000    1935.2031   -595.99572    319110.23    14.593647 
  494500    2044.9538   -616.74104    294361.33    14.653982 
  495000    2209.5396   -682.52321     309745.9    14.887268 
  495500    2075.4812   -696.69362    287847.45    15.000626 
  496000    2148.5818   -629.76701    305596.72    14.715471 
  496500    2108.5645   -629.17843     296743.3    14.723967 
  497000    1984.9946   -624.37319    289156.43    14.711065 
  497500    2076.2348   -665.78362    300736.86    14.876327 
  498000    1990.0118    -653.0492    313950.42    14.790319 
  498500    2031.2735   -690.39538     293771.9    14.973372 
  499000    1854.7295   -684.81891    304281.15    14.877301 
  499500    1845.5648   -700.25456    293180.69    14.977036 
  500000    2083.0882   -726.32527    300629.72    15.246485 
  500500    1908.6633   -712.45519    301330.86    15.147369 
  501000    1936.2008   -703.73258    304410.69    15.132484 
  501500    2083.0164   -756.12281    294463.29    15.612376 
  502000    2190.4074   -656.60821    303339.09    14.760595 
  502500    1960.3095   -718.14135    298932.37    15.221273 
  503000    1935.9327   -728.02889    292528.24    15.325877 
  503500    2012.0836   -668.08402    293965.62       14.929 
  504000    1797.4624   -634.24654    299525.46    14.874634 
  504500    2168.3189   -675.77485    305262.03    15.128905 
  505000    2014.5524    -704.7292    299650.32    15.364409 
  505500    1948.1575   -652.88924     298106.2    14.990425 
  506000    2074.1437   -703.15543    303238.55     15.44435 
  506500    1983.0709   -676.23037    298968.96    15.247586 
  507000      1913.72   -634.98774    306127.13    14.972936 
  507500    1919.7124    -693.1946    300686.59    15.399286 
  508000    2085.0591   -703.98503    300973.65    15.377413 
  508500    2015.7048   -728.93652    303210.96     15.57428 
  509000    1917.8668   -749.35002    304210.25    15.714423 
  509500    1940.3203   -750.41299    299938.66    15.818975 
  510000    2079.8463   -764.29431    300475.38    15.851926 
  510500    1926.8381   -737.17803     300349.9     15.73874 
  511000    2012.8624   -703.95176    308957.35    15.327975 
  511500    1871.8379    -736.5822    300203.65    15.672047 
  512000    1855.7969   -695.75807    291944.74     15.58801 
  512500    2037.9991   -711.12335    289692.52    15.740105 
  513000    2287.7783    -682.4085     302721.4    15.546394 
  513500    2003.1239   -704.69914    304113.55    15.529753 
  514000    2093.2484   -637.24253    307315.15    15.040419 
  514500    1989.7293   -613.94385    303869.85    14.848139 
  515000    2034.8775    -600.4619     292378.1    14.767921 
  515500    2011.8271   -639.45015    298204.47    15.040338 
  516000    2140.6036   -638.64622    298668.17    15.150145 
  516500    1952.6704   -615.97773    305053.83    14.909575 
  517000    2187.6441    -707.7796       296159    15.515775 
  517500    2131.7779   -738.59709    303701.87    15.573911 
  518000    1909.5238    -733.3752     300144.5    15.462521 
  518500    1821.9301   -715.11395     295898.2    15.388373 
  519000    1852.6942   -717.88284    300190.09    15.395835 
  519500    2057.8684   -743.30518    306642.79    15.583562 
  520000    1951.1518   -760.81004    296945.35    15.841788 
  520500    2000.0425   -733.60976    297093.15     15.60488 
  521000     2102.601   -737.26093    302873.76    15.423129 
  521500    1929.7801   -727.82979    300076.69     15.34777 
  522000    1979.2277   -728.86034    303739.11    15.335785 
  522500    1836.1474   -685.07015    299850.87    15.004842 
  523000    2053.5452   -728.10658    299163.17    15.254741 
  523500    1998.8101   -738.36761    293782.82    15.462823 
  524000    1834.3624   -672.67655    299620.01    14.981467 
  524500    1933.4037   -702.39831    297342.42    15.073753 
  525000    2004.1669   -731.02919    308078.82     15.29184 
  525500    1894.7542   -688.65694    298029.41     15.03267 
  526000    1936.3298   -718.28692    300652.75    15.192391 
  526500     1994.751   -665.76529    300984.03    14.905343 
  527000    1850.4092   -740.35973    294438.15    15.473808 
  527500    2031.6829   -714.07698    305206.73    15.138659 
  528000    2090.1267   -741.43884    300568.68    15.358907 
  528500    2056.6459   -736.05377    302534.19    15.248305 
  529000    1901.4793   -726.55993    301235.13    15.113668 
  529500    2067.6799    -731.3878    298642.52    15.258568 
  530000    2136.4169   -719.77798    295903.64    15.191101 
  530500    1934.6229   -621.53415    295037.02    14.652574 
  531000    2155.2177    -609.0779    298926.59    14.580975 
  531500    1928.8645   -642.44708    305296.93    14.790117 
  532000    1897.5562   -601.96818    300597.23    14.588258 
  532500    2141.9632   -614.58365    299547.83    14.618735 
  533000    1962.7923   -604.63157    287421.64    14.675735 
  533500    2246.3305   -607.69295    293396.11    14.631941 
  534000    1806.9911    -605.3403    289695.25    14.630482 
  534500    2102.6915   -670.21434    305530.91    14.861431 
  535000    2045.9528   -673.73058    296552.09    14.883253 
  535500    1933.1349   -663.43098    293176.07    14.878822 
  536000    2054.2082   -664.99798    311482.43    14.780719 
  536500     1857.795   -701.74966    304806.31    14.997603 
  537000    2009.6163   -685.99256    310625.37    14.864915 
  537500    2078.3336     -693.695    304189.63    14.932554 
  538000    1956.1453    -690.1616    303798.41    14.975968 
  538500    1865.9512    -683.2525    294686.77    14.974629 
  539000    2171.3974   -667.15876    304274.67    14.953387 
  539500    1985.5651   -655.71826    293243.02    14.916117 
  540000    1998.5104   -695.14351    294754.09    15.142563 
  540500     2151.443   -695.75751    294908.62    15.085512 
  541000    2107.9484   -677.00639    297614.07     14.95722 
  541500    2037.3358   -725.94396     295901.2    15.506478 
  542000     2038.851    -739.2034    301437.61    15.672461 
  542500    1951.9956   -695.25294    296998.39    15.387468 
  543000    2036.3962   -573.05925    330893.39    14.635081 
  543500    1888.9895   -591.37109    305446.46    14.802483 
  544000    1976.5742    -591.7311    305606.45    14.718857 
  544500    1876.1993   -583.41029    320532.79    14.671526 
  545000    1983.4551   -598.35788    291295.55     14.83134 
  545500    1804.4596   -589.70457    298705.08    14.694154 
  546000    1949.1159   -609.39634    296860.33    14.834333 
  546500     2047.934   -674.15571    297673.66    15.322125 
  547000    2109.4016   -695.09097     296946.6    15.551006 
  547500    2110.0637   -700.60681    304142.51    15.589672 
  548000    2068.2191   -637.49618    306063.65     15.08228 
  548500    2116.4453   -652.32457    300704.73    15.211021 
  549000    1865.2685   -612.98172    295522.05    14.903926 
  549500    1993.8386   -587.38324     305687.1    14.720159 
  550000    2050.0464   -624.28396    304945.02    14.817257 
  550500    2158.8433   -658.85756    300400.49    14.930399 
  551000    2049.4785   -679.65637    299793.57    14.984986 
  551500    2084.5566   -714.11199    309690.73    15.150188 
  552000    1938.6287   -659.27831    307030.38    14.802898 
  552500    1857.3841   -717.71096    298832.92    15.178885 
  553000    2088.8679   -674.56947    293904.55    14.944244 
  553500    1961.2672   -690.26466    297958.69    15.056475 
  554000    1969.0374   -732.70492    299167.67    15.396958 
  554500    1717.8218   -610.78723    290138.65    14.756304 
  555000    1947.4575   -591.35566    299201.97    14.746377 
  555500    1974.6301   -657.64978    294893.93    15.196661 
  556000    2050.9211   -621.70746    298433.64    14.886502 
  556500    1871.5533   -590.40401    291082.51    14.754879 
  557000    1805.3822   -591.50539    299185.32    14.710864 
  557500    1923.0089   -593.85205    293459.68    14.724475 
  558000    2055.6276   -624.90765    304528.87    14.987441 
  558500    1951.4309   -646.44379    297443.33    15.184549 
  559000    2049.1712   -648.97084    294194.43      15.1573 
  559500    1960.1738   -631.43697     305529.9    15.136645 
  560000    2060.0801    -641.3172    292457.83    15.160884 
  560500    1945.9463   -706.33147    297895.74    15.603195 
  561000    1925.2651   -706.86057    302570.47    15.496991 
  561500    2082.8243   -679.90522    304178.52    15.252121 
  562000    1966.5014   -706.17572    296918.44    15.566638 
  562500    2067.3564   -658.92949    303732.35    15.212417 
  563000    1865.1351   -685.47134    298385.32    15.380968 
  563500    2053.6146   -680.39955    301809.32    15.459389 
  564000    2074.8573   -689.98643       305161    15.354465 
  564500    2140.5977   -704.71614    301464.01    15.434179 
  565000    2009.9872   -622.08591    306443.35    14.948425 
  565500    1930.0178   -655.38049    296486.57    15.217269 
  566000    2108.0531   -640.79753    303475.43    15.035885 
  566500    1817.2835   -651.55924    301840.56    15.159786 
  567000    2096.6007    -671.1248    299493.09     15.38184 
  567500    2080.2275   -680.42609    299776.98    15.396455 
  568000    1910.9442   -707.91084     298330.3    15.558094 
  568500    1920.7836   -696.60579    299642.68    15.543516 
  569000    1986.2889    -717.2366    293688.91    15.700635 
  569500    2156.4956    -603.0194    301907.77    14.875076 
  570000    2054.9499   -578.23478    315270.34    14.620397 
  570500    1958.8718   -650.03381    301119.41    15.146715 
  571000    2225.9263   -634.04506    300486.38     14.98712 
  571500    2108.5083   -656.15648    297799.98    15.315009 
  572000    1910.6382   -693.28865    304901.54    15.531404 
  572500    1695.6797   -706.10795    296672.86    15.683349 
  573000      1976.16   -714.51766    293602.67    15.719736 
  573500      2027.59   -716.59844    295052.38    15.728727 
  574000    2000.3801   -734.54669    303834.94      15.7387 
  574500    1895.8318   -713.28942    300893.37    15.664201 
  575000    1979.0499   -706.02784    304061.06    15.571245 
  575500    2114.7144   -752.90369    289686.34    15.983437 
  576000    1907.5614   -704.33369    296174.11    15.621513 
  576500    2090.7074   -707.60143    301020.84    15.658277 
  577000    1970.0336   -702.57074    302163.06    15.644405 
  577500    1952.5729   -702.95955    299310.79    15.637386 
  578000    2160.0776   -708.43939    304461.94    15.619806 
  578500    2201.0817   -708.74591    302456.85    15.598243 
  579000    2044.8819   -715.35234    291182.74    15.743102 
  579500     2094.946   -726.67882    298549.07    15.739261 
  580000    1974.2156   -691.78606    302806.81    15.479125 
  580500    1994.3414   -692.47044    299038.21    15.635834 
  581000    2152.1555   -700.17426     306585.5     15.50219 
  581500    2108.9415   -699.11075    302866.67    15.564188 
  582000    2024.6658   -705.56699    301621.97     15.68003 
  582500     2076.353   -697.75392    299342.92    15.577279 
  583000    2057.7492   -749.97479    296341.11     15.93968 
  583500    1968.1736   -698.17907    306952.07    15.493801 
  584000    2088.9273    -739.1213    300570.53    15.792065 
  584500    2023.1967   -703.14587    295275.44    15.556626 
  585000    2097.6292   -665.93076    296183.45    15.341606 
  585500    2023.8624   -618.73723    318812.39    14.900753 
  586000     2098.723   -637.62704    300082.17    14.983534 
  586500    2133.6661   -643.75005    303350.23    14.955084 
  587000    1986.9047   -650.62718    288936.91    15.044257 
  587500    1949.8643   -648.73784    300128.98    15.078259 
  588000    1818.1952   -644.52988    295947.54     15.09612 
  588500    2025.8592   -625.77819     304528.9    14.891642 
  589000    2023.7124   -718.11355    298873.81    15.446634 
  589500    1938.4569    -696.6371    298547.08    15.355103 
  590000    2060.5506   -741.68265    300430.62    15.748107 
  590500    2010.9327   -740.42378    303620.41    15.787826 
  591000    2095.9699   -651.54782    299683.21    15.179325 
  591500    2035.9211   -695.41387    299099.45    15.508106 
  592000    1915.3288   -626.38244    304349.86    15.039188 
  592500    2110.2892   -654.99154    296481.28    15.187009 
  593000    1803.5501   -703.72555    296840.95    15.497605 
  593500    2089.3486   -699.89327    299758.76    15.463675 
  594000     1956.405   -721.79949    296849.35    15.617824 
  594500    1886.7468    -702.6714    299809.46     15.60865 
  595000    2099.4831   -603.25534    299986.57     14.96913 
  595500    1857.2892   -604.34936    302977.58    14.951749 
  596000    2128.1341   -701.22604     306268.4    15.525574 
  596500     1965.841   -704.54655    296186.76    15.562025 
  597000    1924.4547   -707.60926    300890.44    15.492463 
  597500    1981.7143   -711.88419    298745.29    15.337789 
  598000     2004.588   -675.10031    295675.98    15.133521 
  598500    1973.3195   -588.23228    306677.93     14.72439 
  599000    2213.1241   -639.49399    306699.13    15.082651 
  599500    1979.5164   -701.50757    301545.16    15.421457 
  600000    1878.6454   -699.00846    299691.13    15.369428 
  600500    1969.6315   -658.30162    299130.31    15.266058 
  601000    1858.7889   -649.73696    295028.14    15.171391 
  601500    2086.8061   -642.35455    303875.07    14.966617 
  602000    1978.8039   -706.40101    295827.43    15.534674 
  602500    1947.8804   -650.06981    293181.99    15.184886 
  603000    2069.0556   -643.74387    303889.32    15.119328 
  603500    1925.1588   -635.60432    300891.57    14.989516 
  604000     2087.359   -639.99478    307758.04    14.982363 
  604500    2043.4218   -756.00551     298397.3    15.843007 
  605000    2125.5452   -699.72296    299289.61    15.329989 
  605500    2054.8848   -606.52828    305874.72    14.608724 
  606000    2091.2147   -607.10726    303251.85    14.604134 
  606500    2027.4698   -606.32866    298862.75    14.591712 
  607000    2100.4583   -608.70976    290091.95    14.612234 
  607500    1924.9006   -597.43051    301151.32    14.608586 
  608000    2027.4554   -625.86125    300813.05    14.750801 
  608500    1970.8058    -651.9084    296360.08    14.946168 
  609000    1977.5744   -644.74678    289877.17     14.88786 
  609500    2037.6517   -636.86897    303511.66    14.693923 
  610000    1923.5808   -718.67897    299506.62    15.071526 
  610500    2006.2557   -724.97181     297295.4    15.140309 
  611000    2006.8455     -707.098    305301.99    14.972531 
  611500    1891.6988   -722.16706    301194.67    15.099733 
  612000    1976.9415   -732.42517    297244.16    15.154712 
  612500    1972.6821   -710.25087    299623.72    15.003655 
  613000    1793.3209   -719.31592       297599    15.072842 
  613500    2024.5313   -707.95928    298592.21     15.00787 
  614000    1908.7362   -709.33265    297978.21    14.977946 
  614500    1956.6854   -687.92801    314491.08    14.842639 
  615000    2219.4578   -708.84641    307903.13    15.005857 
  615500    1985.0644   -715.29764    298596.21    15.066384 
  616000     1933.277   -732.55664    292620.17    15.199036 
  616500    1908.4902   -741.85197    296309.11    15.171919 
  617000    1864.5915   -731.94168       295325    15.128533 
  617500    1917.9049   -739.91233    293915.54    15.153531 
  618000    1952.9254     -721.398    302956.16    15.038886 
  618500    1972.0939   -708.30332    295670.27    15.049311 
  619000     2167.351   -732.46565    306949.34    15.105365 
[...]
14848500     1872.398   -681.35797    310433.42    14.793425 
14849000    1795.6903   -701.19825    302746.12    14.877565 
14849500    2017.7716   -660.87704    308914.49    14.689194 
14850000    1955.1031   -667.86046    312708.05    14.782237 
14850500    2131.9112   -748.37719    295983.97    15.386226 
14851000    2086.4833   -746.20787    294760.75    15.393035 
14851500    2186.7515   -748.88456    299132.35    15.425091 
14852000    1916.6506   -746.82023    300598.29    15.452059 
14852500    2027.8834   -735.80889    302126.94    15.322389 
14853000    1956.5194   -628.51055    297051.02    14.710771 
14853500    1792.6399   -645.85108    295735.24    14.785731 
14854000    1930.8614   -659.29854    299701.05    14.822699 
14854500    1919.4952    -669.2029    305474.18    14.878191 
14855000    2101.9058    -650.9777    302545.47     14.77677 
14855500    2124.8056   -726.93706     301317.2     15.27156 
14856000     2031.065   -723.21858     302887.7     15.24499 
14856500    1994.3887   -728.19832    300050.47    15.285804 
14857000     2048.586   -700.95274    295102.96    15.073983 
14857500    1900.8744    -687.1668    299107.11    14.939937 
14858000    2083.4197   -668.47537     297830.7    14.885791 
14858500    2085.7258   -689.93409    298717.51    15.095143 
14859000    2007.9396   -631.56801    302137.19    14.794653 
14859500    1962.3711   -661.64279     301828.4     14.99421 
14860000    1944.9172   -694.19395    300200.18    15.207203 
14860500    1885.8821   -758.05934    303014.27    15.759586 
14861000    2020.4474   -757.84911    304329.46    15.766125 
14861500    1946.1574   -768.00358    308212.24    15.804509 
14862000    1867.5135    -760.6964    297779.19    15.763791 
14862500    2119.0001   -774.23811    320096.41    15.778977 
14863000    1912.2638   -773.08185    305217.64    15.820058 
14863500     2236.237    -785.2407    307357.97    15.710009 
14864000    1892.1712   -728.79655    307260.09    15.140828 
14864500    2177.8586   -752.48847    294997.08    15.202571 
14865000    2058.1594   -749.86025    302932.87    15.188029 
14865500    1983.7361     -709.911    301212.07    14.998729 
14866000    1962.7484   -635.77454    301373.45    14.557841 
14866500    1908.6741   -683.13638    297097.94    14.899683 
14867000    2149.9367   -749.41437    300567.61     15.33897 
14867500    1926.9215   -762.03048    298679.84    15.574522 
14868000    1917.8658   -788.41613    292441.98    15.837181 
14868500    1893.9819   -786.46062    301825.27    15.727115 
14869000     2111.681   -785.08361    299808.47    15.834562 
14869500    1945.1217   -762.81825    308781.22    15.745884 
14870000    1903.5359     -757.394    301459.51    15.720262 
14870500    2083.9904   -737.16933    303730.12    15.584002 
14871000     1952.965    -771.7067    294761.59    15.890824 
14871500    1921.5037    -716.1562    294521.34     15.32298 
14872000    2192.9209   -674.01121    300287.09    14.912592 
14872500    1868.0016   -688.83091    293046.92    14.981863 
14873000    1974.9362   -713.68497    297501.91    15.004327 
14873500    2050.0631   -749.16789    300843.34    15.151672 
14874000    2062.8824    -740.8817    303881.37    15.106321 
14874500    1852.8114   -787.92254    289114.06    15.756472 
14875000    2052.1728   -773.00499    302765.81    15.628076 
14875500    1836.4876   -731.93473    289561.28     15.56506 
14876000    1847.3561   -751.17246    299638.57    15.739609 
14876500    1948.1338    -746.3976    303349.82    15.521291 
14877000    2189.4553   -746.74405    310369.95    15.414575 
14877500    1957.6392   -771.12798    296425.47    15.901629 
14878000    2022.2619   -745.14174    303085.93    15.709213 
14878500    1898.2703   -763.97882    302804.69    15.824493 
14879000    1906.5007   -764.73554    304325.29    15.736295 
14879500    1992.8655   -783.05646    301509.93    15.886585 
14880000    1893.1128   -749.23131    302210.54    15.781111 
14880500     2023.758   -750.32056    305532.43      15.7731 
14881000    1840.4326   -750.88247    300705.04     15.86402 
14881500     2117.513    -733.4003    300984.14    15.703353 
14882000    1914.5417   -681.26575    303307.45    15.205199 
14882500    2059.6721   -619.76484    305483.21    14.901735 
14883000    1990.0206   -647.11471    296556.22    15.044566 
14883500    1855.0793   -725.96238    300356.65    15.733762 
14884000    1975.8926   -750.16557    296813.42    15.931487 
14884500    2067.9644   -759.30171    301057.06     15.83455 
14885000    2178.7881    -757.9366    304445.28    15.818233 
14885500    1906.3159   -764.60349     291118.8     16.00416 
14886000    2036.1417   -658.17327    298351.68    15.152808 
14886500    1916.7798   -676.49167    297432.56    15.508761 
14887000     1880.127    -704.5612    297440.53    15.580461 
14887500     1869.934   -723.24011    295794.82     15.72943 
14888000    2172.3563    -640.4152    297975.49    15.074626 
14888500    1960.0771   -705.81097    293912.64    15.523334 
14889000    1845.5549   -645.06196    301744.02    15.080094 
14889500    1824.1477   -645.86052    294878.68    15.080079 
14890000    2106.5274   -628.05544    303099.68    14.891106 
14890500    1874.6668   -646.75254    296727.56    15.083778 
14891000    2014.0515   -629.61176    298580.58    15.043173 
14891500    1804.4441   -637.75305    295235.63    15.072566 
14892000    2039.0522   -622.82647    305347.67    14.850717 
14892500    2117.2849   -660.44187    302888.97    15.168176 
14893000    2049.4532   -637.15017    301985.06    15.071739 
14893500    2068.7588   -601.19848    312838.41    14.815515 
14894000    2207.3764   -738.06942    303851.88    15.460945 
14894500    2028.6447   -765.28387    296546.85    15.872013 
14895000    1877.5846   -764.58335     294627.2    15.835149 
14895500    2110.8575    -758.8167     300005.3    15.665859 
14896000    2104.0584     -756.498    305434.03    15.553284 
14896500    1943.6462    -757.8636    300678.87    15.529243 
14897000    1907.2383   -722.21927    307770.75    15.280303 
14897500    1976.4682     -718.141     303531.8    15.215762 
14898000    2121.6819   -735.69755    301362.61    15.403668 
14898500    1851.2234   -716.63152    302099.91    15.155117 
14899000    2008.7903   -757.41276    298360.84    15.566543 
14899500     1954.619   -746.88862     293664.6    15.532155 
14900000    1986.6107   -722.06018     297744.9    15.285984 
14900500    1938.8321   -773.68609    301745.77    15.756498 
14901000    1925.0722   -761.89694    296679.76    15.787086 
14901500    1985.7114   -726.04586    298454.39     15.28798 
14902000    1969.4095   -656.50278    301470.18    14.828863 
14902500    2019.2403   -731.46061    305551.44    15.272135 
14903000    1831.4127   -602.24836    310238.27     14.56481 
14903500    1776.6315   -658.13013    313953.44    14.802779 
14904000    1970.7707   -653.87454    291016.28    14.855015 
14904500    1843.3742   -656.66765    299000.72    14.909104 
14905000    2086.1572    -660.5182    299274.53    14.912158 
14905500    1942.0082   -612.23752    293078.27    14.654642 
14906000    1831.3523   -702.69886    296924.04    15.075408 
14906500    1865.7177   -723.93934    301021.15    15.295523 
14907000    2019.2608   -714.20134    298129.36    15.242905 
14907500    1972.9381   -749.39707    302765.96    15.690483 
14908000    1877.3813   -688.03887    294474.58    15.166469 
14908500    1982.0043   -656.20996    296316.64      15.0352 
14909000    1961.5075   -693.16481    296627.88    15.387638 
14909500    2022.1548   -694.11072    299683.14    15.570719 
14910000    1963.1697   -666.59416     302549.7    15.197035 
14910500     1982.791   -693.76539    298259.97    15.325983 
14911000    2020.8537   -759.64391    294223.63    15.784507 
14911500     2164.216   -648.27566    303808.33    15.127763 
14912000    2150.6606   -649.77908     303249.6    15.199295 
14912500    1932.3452    -719.5559    294301.62    15.849181 
14913000    1718.0397   -669.41973     297395.1    15.438822 
14913500     2016.196   -675.49059    304752.18    15.371867 
14914000    1953.1182   -670.78507     298477.4    15.481725 
14914500    1938.5331   -669.80569    299679.76    15.326191 
14915000    1812.9862   -670.61407    298931.65    15.316055 
14915500    2128.3444   -655.45294    304526.03    15.296413 
14916000    2128.7714   -690.52456    299083.56    15.607877 
14916500    2017.3258   -704.03387    301617.16    15.746148 
14917000     2166.111   -673.91598    302040.74    15.492522 
14917500    2050.5286   -606.34677    296777.53    15.039785 
14918000     2251.362   -629.05459    297363.74     15.04545 
14918500    2156.8535   -674.97623    300587.61    15.284378 
14919000     1992.484   -644.20303    298883.43     15.13951 
14919500    1939.2959     -708.894    292172.19    15.593958 
14920000    1936.0926   -699.19857    293205.99    15.457266 
14920500     2246.968   -692.17815    286549.13    15.397485 
14921000    2198.8172   -676.58938    303995.87    15.260054 
14921500    1912.7499   -692.85557    304042.68    15.359367 
14922000     1947.563   -658.97823     299120.8    15.152834 
14922500    2128.3353   -684.70898    310125.48    15.245744 
14923000     1939.825   -697.21049    300182.82    15.247312 
14923500     1967.185   -715.79267    294929.86    15.230644 
14924000    1961.2301   -728.48443    298813.71    15.270194 
14924500    1920.1451   -741.01107    307118.53    15.427981 
14925000    2031.6291   -763.73711    305442.85    15.819991 
14925500    1877.2613   -750.10503    301017.37    15.629786 
14926000    1857.0851   -676.29426    303069.16    15.116498 
14926500    2021.1084   -680.42943    306650.02    15.265554 
14927000     2014.588   -679.31745    300545.32    15.343615 
14927500    2008.1049   -680.58131    302090.82    15.280178 
14928000     1862.005   -686.07593    300982.16    15.289126 
14928500    2052.6423   -691.34667    304254.18     15.27239 
14929000    1940.0014    -668.2698    303383.03    15.242093 
14929500    1897.5526   -686.81524    286147.84    15.387225 
14930000    1988.0264    -707.7071    297095.91    15.543301 
14930500    1920.7991   -701.36353    293440.61    15.373692 
14931000    2045.1309    -697.5494    295714.46    15.518272 
14931500    2001.2312   -638.31927    299676.99    15.024764 
14932000    1907.0017   -668.93621    298786.91    15.359825 
14932500    2016.4146   -747.26729    302338.47    15.989371 
14933000     2028.901   -743.95272    309693.03    16.043189 
14933500    1739.2002    -732.7293    300533.44    15.729844 
14934000    1906.9329   -732.66488    305220.14    15.770106 
14934500    1939.9904   -666.35819    302431.64    15.309635 
14935000    2211.2429   -678.21655    306635.02    15.491291 
14935500    1902.6617   -703.51561    297009.55    15.653064 
14936000      1978.83   -652.76378    301556.61    15.236401 
14936500    1898.8077   -713.63177    287794.08    15.861911 
14937000    2098.2853   -607.45171    305209.49     14.99954 
14937500    1996.1129     -623.497    297699.29    15.115805 
14938000    2019.8477   -620.13198    283357.03    14.970956 
14938500    1892.5834   -604.69178    300031.74    14.901094 
14939000    1857.4569   -697.05151    300700.26    15.648277 
14939500    2031.2597   -707.26709    301713.05    15.641868 
14940000    1837.5694   -702.36237    305287.66    15.779358 
14940500     2021.702   -697.81834    302991.67    15.685729 
14941000    2005.9407   -674.48049    297297.47    15.487248 
14941500    2016.4565   -621.57923    301960.82    14.899382 
14942000    1982.7348   -656.02217    297686.75    15.185577 
14942500    1832.1617   -636.41708    303539.82    14.865855 
14943000    1957.6893   -673.84799    298720.07    15.064577 
14943500    2065.1534    -642.6875     306948.6    14.860383 
14944000    2170.2053   -649.35764    299237.84    14.801699 
14944500    2109.3528     -655.669    302986.68    14.757131 
14945000    1941.7899   -656.24266    308799.64    14.737813 
14945500    1895.6789   -672.74253    298478.08    14.824696 
14946000    2093.7559   -658.07135    295252.64    14.757949 
14946500    1969.2751   -683.18416    297015.32    14.934727 
14947000    2254.2471   -733.14511    306869.12    15.234706 
14947500    1956.4616   -742.70421    298795.78    15.265029 
14948000    2054.5568   -695.64197    282201.98    14.907289 
14948500    1811.8989    -677.0357    299807.19    14.757879 
14949000    1961.3606    -674.2298    298894.83    14.862015 
14949500    2115.1407   -681.56031    302522.95    14.862408 
14950000    2036.4873   -673.67793    316210.52    14.822706 
14950500     2020.588    -642.3302     301568.2    14.661995 
14951000    1876.8298   -730.19688    305310.75    15.242749 
14951500    1960.2398    -733.5846    290017.08    15.242775 
14952000     1999.871    -741.9398    300379.12     15.31668 
14952500    1995.7477   -659.95426    312059.48    14.785343 
14953000    2024.8307   -746.44761    294972.74    15.363359 
14953500    2045.7469   -730.76452    304663.58    15.273473 
14954000    1911.0365   -727.28226    302578.84    15.256008 
14954500    2000.8332   -693.82596    299504.55      15.0807 
14955000    2105.8221   -638.78589    302398.47    14.739325 
14955500    1987.9462   -601.94085     308921.2    14.607492 
14956000     1927.711   -657.11505    299848.79    15.049275 
14956500    1810.1665   -579.59456     302871.9    14.563669 
14957000    1941.7243   -647.42742    302778.72    14.854626 
14957500    2039.6225   -688.99089    296761.39    15.068268 
14958000    1894.2581   -767.75322     296539.3    15.690468 
14958500    2070.2582   -682.09237    305042.82    14.936849 
14959000    1975.1552   -701.80533    298836.67    15.061479 
14959500    1904.4104    -677.4732    288730.96    14.930642 
14960000     2052.834   -685.95614    297406.53    14.959743 
14960500     2175.583   -707.79299    301779.25    15.098717 
14961000    1964.6428   -748.04157    301630.39    15.490256 
14961500    2048.7689   -744.12894    300145.86    15.588046 
14962000    2006.1038   -729.21416     306179.9     15.34622 
14962500    1974.9999   -718.51947    298891.47    15.185765 
14963000    1965.5954   -676.74664     297699.8    14.923469 
14963500    2101.1349   -722.08212    301023.58    15.155893 
14964000    1979.0614   -741.72369       297036    15.358155 
14964500    2002.9217   -754.56777    298888.09    15.521645 
14965000    2036.0176     -766.659     299159.6    15.666446 
14965500    2002.3886   -761.29542    298581.57    15.666498 
14966000     2115.236   -741.79617    298195.86    15.442736 
14966500    2062.4916   -723.77544    302224.49     15.27597 
14967000    1865.2393   -756.72067    299795.93    15.623688 
14967500    1857.9252   -693.40609    293534.99    15.068218 
14968000    1884.9538   -608.75977    300809.34    14.668639 
14968500     1861.736   -610.24583    302922.69    14.615151 
14969000    1853.8173   -747.28872     296455.3    15.557251 
14969500    2078.1247   -720.35902    296513.76    15.576199 
14970000    1928.3343   -621.14135    294716.55    15.082735 
14970500    2137.8914   -642.99126    301860.55    14.945556 
14971000    1948.3553   -621.83774    293812.59    14.973419 
14971500    2148.7493   -613.37621       309825    14.902783 
14972000    1939.1822   -661.70127    293615.75    15.219036 
14972500    1982.6845   -631.40756    294188.84    15.008567 
14973000    2025.9426   -706.83494    302086.82     15.71966 
14973500    2208.2964   -712.16704    301559.12    15.745678 
14974000    2035.4191   -713.35726    297495.04    15.824624 
14974500     2009.671    -703.4447    297037.14    15.710182 
14975000    1945.6061   -599.96223    311133.11    14.850967 
14975500    2138.6166   -639.74475    292802.39    15.052277 
14976000    2007.6729   -626.95091    294700.91    15.034881 
14976500    1992.5533   -655.37389    299164.14    15.343309 
14977000    2084.7571   -713.15712    296699.46    15.827718 
14977500    1958.1448   -703.05418    293658.83    15.858451 
14978000     2079.557   -720.06258    296648.99    15.893935 
14978500    2066.6636   -682.46806    293589.85    15.428333 
14979000    1813.8184   -637.84892    304020.77    15.043535 
14979500    1993.5726   -718.78673    296310.29    15.595526 
14980000    1899.7641   -690.54847     299042.4    15.439078 
14980500    2137.3321   -677.76599    299129.82    15.439861 
14981000    2003.6308   -678.42449    304581.98    15.376044 
14981500    1988.8965   -690.96987     295347.6    15.379382 
14982000    2048.5915    -719.0184    306161.25    15.429035 
14982500    1921.8708   -759.04271    306698.18     15.78188 
14983000    1998.3509   -741.77465    290277.56    15.747192 
14983500    2192.5126   -635.58394    312961.83    14.882819 
14984000    2030.1536   -670.24052    295135.92    14.913938 
14984500    1983.8507   -638.89195    306059.66     14.83045 
14985000     2037.068   -681.25103    297389.73    14.930484 
14985500    2092.5384   -669.54526    309475.65    14.778168 
14986000    1979.5575   -735.94398    293076.65    15.207605 
14986500    2144.9342   -642.34374    321799.48    14.509574 
14987000    1905.3684   -632.36397    294037.57    14.587458 
14987500    1943.9111   -626.73826     305267.4    14.538506 
14988000    2026.6766   -641.97704    292783.82    14.554139 
14988500    2087.4321   -647.36349    299079.85    14.551537 
14989000    1920.3703   -661.07131    301920.61    14.678365 
14989500    2053.6406   -752.65769     300768.1     15.15417 
14990000     2104.136   -691.20329    302952.69    14.848539 
14990500    1948.2769    -651.2184    304240.98    14.780558 
14991000    2091.9677   -664.77183    309504.59    14.781465 
14991500    1983.2777   -759.02136    299786.57     15.44196 
14992000    1988.8087   -791.18402    294893.02    15.655194 
14992500    1970.3074   -783.55623    300327.94     15.58828 
14993000    2052.8641   -791.02641    300342.06    15.666691 
14993500    2080.9267   -795.59498    299693.99    15.706708 
14994000    1843.8747   -787.75213    300911.55    15.603186 
14994500    1992.6668   -737.89383    306453.32    15.145321 
14995000    1892.8344   -748.77151    299498.52    15.153272 
14995500    1837.8922   -707.33864    292253.76    14.912762 
14996000    2017.7226   -694.22781     309279.5    14.771403 
14996500    2005.3067   -710.77781    295584.18    14.832549 
14997000    1934.3773    -698.8264    302605.56    14.790191 
14997500    2129.9957   -698.81608    309005.53    14.778036 
14998000    1883.6593   -678.81912    305277.45    14.767259 
14998500     2034.662   -800.94369    282749.95    15.838168 
14999000     1955.151   -780.01037    294311.41    15.653436 
14999500    2121.7033   -753.50348       301817    15.500425 
15000000     2068.669   -772.55309    301906.96     15.56052 
Loop time of 67390.7 on 6 procs for 15000000 steps with 256 atoms

Performance: 38.462 ns/day, 0.624 hours/ns, 222.583 timesteps/s
99.0% CPU use with 6 MPI tasks x no OpenMP threads

MPI task timing breakdown:
Section |  min time  |  avg time  |  max time  |%varavg| %total
---------------------------------------------------------------
Pair    | 3875.4     | 3960.9     | 4112.1     | 134.8 |  5.88
Neigh   | 111.11     | 111.87     | 113.19     |   6.6 |  0.17
Comm    | 886.81     | 1045.9     | 1137       | 274.6 |  1.55
Output  | 417.31     | 417.33     | 417.42     |   0.2 |  0.62
Modify  | 61796      | 61802      | 61811      |   2.0 | 91.71
Other   |            | 52.89      |            |       |  0.08

Nlocal:    42.6667 ave 50 max 35 min
Histogram: 1 0 1 0 1 0 1 0 1 1
Nghost:    1124.17 ave 1150 max 1106 min
Histogram: 1 2 1 0 0 0 0 0 0 2
Neighs:    3437.5 ave 3913 max 2747 min
Histogram: 1 0 0 2 0 0 0 0 1 2

Total # of neighbors = 20625
Ave neighs/atom = 80.5664
Neighbor list builds = 756671
Dangerous builds = 0

write_data	data.final.${p_id}
write_data	data.final.4
Total wall time: 18:43:16
