LAMMPS (8 Feb 2019)
Processor partition = 2
echo both

include         in.partitions
variable p_id world   0 1 2 3 4 5
include		in.temp
variable	temperature equal 2000.
variable	tempDamp equal 0.1 # approx 0.1 ps
include		in.pressure
variable	pressure equal 300000.
variable	pressureDamp equal 1.0
include 	in.seed
variable	seed world 74581 93734 128321 21934 495716 871038
units		metal
read_restart    Restart.lmp.${p_id}
read_restart    Restart.lmp.2
  restoring atom style atomic from restart
  orthogonal box = (0.64499 0.64499 0.64499) to (15.539 15.539 15.539)
  1 by 2 by 3 MPI processor grid
  pair style eam/alloy stores no restart info
  256 atoms
include 	in.setup
variable	out_freq equal 500
variable	out_freq2 equal 500

neigh_modify    delay 10 every 1
include		in.al
### Argon Potential Parameters ###
pair_style 	eam/alloy
pair_coeff 	* * Al99.eam.alloy Al

timestep	0.002 # According to Frenkel and Smit is 0.001

thermo          ${out_freq}
thermo          500
thermo_style 	custom step temp pe press lx


restart 	${out_freq} Restart.lmp.${p_id} Restart2.lmp.${p_id}
restart 	500 Restart.lmp.${p_id} Restart2.lmp.${p_id}
restart 	500 Restart.lmp.2 Restart2.lmp.${p_id}
restart 	500 Restart.lmp.2 Restart2.lmp.2



timer 		timeout 23:50:00 every 1000
New timer settings: style=normal  mode=nosync  timeout=23:50:00

# NPT

include		in.dump
dump            myDump all atom ${out_freq2} dump.al.${p_id}
dump            myDump all atom 500 dump.al.${p_id}
dump            myDump all atom 500 dump.al.2
dump            myDcdDump all dcd ${out_freq2} out.${p_id}.dcd
dump            myDcdDump all dcd 500 out.${p_id}.dcd
dump            myDcdDump all dcd 500 out.2.dcd
dump_modify	myDump append yes
dump_modify     myDcdDump append yes



fix             1 all plumed plumedfile plumed.dat outfile plumed.out
fix             2 all nph iso ${pressure} ${pressure} ${pressureDamp}
fix             2 all nph iso 300000 ${pressure} ${pressureDamp}
fix             2 all nph iso 300000 300000 ${pressureDamp}
fix             2 all nph iso 300000 300000 1
Resetting global fix info from restart file:
  fix style: nph, fix ID: 2
fix             3 all temp/csvr ${temperature} ${temperature} ${tempDamp} ${seed}
fix             3 all temp/csvr 2000 ${temperature} ${tempDamp} ${seed}
fix             3 all temp/csvr 2000 2000 ${tempDamp} ${seed}
fix             3 all temp/csvr 2000 2000 0.1 ${seed}
fix             3 all temp/csvr 2000 2000 0.1 128321
fix             4 all momentum 10000 linear 1 1 1 angular

run             30000000 upto # 60 ns
All restart file global fix info was re-assigned
Neighbor list info ...
  update every 1 steps, delay 10 steps, check yes
  max neighbors/atom: 2000, page size: 100000
  master list distance cutoff = 8.28721
  ghost atom cutoff = 8.28721
  binsize = 4.1436, bins = 4 4 4
  1 neighbor lists, perpetual/occasional/extra = 1 0 0
  (1) pair eam/alloy, perpetual
      attributes: half, newton on
      pair build: half/bin/atomonly/newton
      stencil: half/bin/3d/newton
      bin: standard
Per MPI rank memory allocation (min/avg/max) = 4.005 | 4.069 | 4.38 Mbytes
Step Temp PotEng Press Lx 
14999500    2259.4724   -655.80182    305556.71     14.89402 
15000000    2154.1357   -611.75779    299605.97    14.672995 
15000500    2119.7743   -597.37178    323255.36    14.477718 
15001000    1930.3643   -648.53963     291977.7      14.8001 
15001500    1969.2217   -637.28141    293283.56     14.66423 
15002000    2108.1138   -654.90369    307113.02     14.78311 
15002500    1915.3655   -672.47222    300440.24    14.936445 
15003000    2057.8568   -611.43608    297429.19    14.633291 
15003500    1752.2186   -583.88241    295241.58    14.534482 
15004000     1958.249   -589.02786     272479.7     14.59705 
15004500     2158.598   -602.65695    299911.22    14.577572 
15005000    1910.5895   -603.22953    304950.21    14.525533 
15005500    2170.4176   -608.92827    296971.19    14.601743 
15006000    2118.9538   -626.34264    303957.06    14.725836 
15006500    2021.4719   -590.48471    296747.73    14.540578 
15007000    1985.8453   -601.84608     302894.7    14.590031 
15007500    2052.3419   -652.97598    291347.19    14.817112 
15008000    2144.2828   -664.34315    301994.52    14.860291 
15008500     2066.329   -667.99117    311594.37    14.847601 
15009000    2130.7255   -666.96364    302298.97    14.844992 
15009500    1993.9888   -667.22632    304376.77    14.832318 
15010000    1960.3868    -631.7691    298793.73    14.695419 
15010500    1882.9136   -689.02434    293482.59    14.998069 
15011000    2183.6474   -625.02606    303442.02     14.63329 
15011500    1940.5596   -599.08983    292676.49    14.544594 
15012000    2036.0385   -599.05133    299235.74    14.560422 
15012500    2018.6175   -675.41962    300208.93    14.878286 
15013000    2192.4511   -605.87844    306153.86    14.587111 
15013500     2253.066   -637.96889     291386.7    14.741698 
15014000     1917.133   -584.44945    324442.05    14.474753 
15014500    2002.3366   -609.85771    299535.26    14.654241 
15015000    2089.0922   -627.54572    295772.79    14.632671 
15015500    2068.4868   -657.87533    302020.19    14.753744 
15016000    1944.7966    -628.4102    301762.09     14.69147 
15016500    1929.6275    -620.3819    304969.95    14.598981 
15017000    1949.4798   -662.04315    289198.51    14.888608 
15017500    1999.6464    -667.0896    300672.17    14.787892 
15018000    1996.1983    -666.7306    304835.85    14.879073 
15018500    2049.1335   -601.52005    299992.15    14.570754 
15019000    2127.1989   -616.02714    305654.86    14.595917 
15019500    2074.1009   -610.29246    305480.35      14.6559 
15020000    2057.2564   -634.66338    294718.27    14.715652 
15020500    1926.8025   -678.29453    289826.26    14.945748 
15021000    2041.4615   -655.55696    288593.67    14.861414 
15021500     2084.722   -629.83656    308417.27    14.702408 
15022000    1952.4226   -625.08427     296908.7    14.644219 
15022500    2176.9765   -609.59378    303429.95    14.709486 
15023000    2185.1111   -655.70076    303889.26    14.842364 
15023500    1922.0592    -660.3413    299063.55    14.872509 
15024000    1932.5103   -674.58408    298102.02    14.863086 
15024500    2013.0513   -595.50431    315004.18     14.48031 
15025000    2045.3956   -644.98606    287187.15    14.729474 
15025500    1978.3367   -644.19432    303548.65    14.685407 
15026000    2089.7098   -647.15248    306750.94    14.775898 
15026500    1920.0519   -636.37061    303683.08    14.712487 
15027000    2089.6961   -626.37282    316167.09    14.619938 
15027500    1918.3611   -654.20273     282891.9    14.888351 
15028000    2109.9451   -610.83903    305676.72    14.590099 
15028500    1861.3081    -639.6517    294735.38    14.690408 
15029000    1952.0078   -690.82166    298004.32    14.975248 
15029500    2024.8322   -667.48707    303137.63    14.846929 
15030000    1858.2956   -670.03604    297006.49    14.919127 
15030500    1969.2881   -675.70968     290527.4    14.945593 
15031000    1878.5777    -681.8689    288200.22    14.985805 
15031500    2274.7227   -689.57726    302781.53    14.972617 
15032000    1895.0868   -730.05863    293950.44    15.394684 
15032500    1897.4656   -650.53632       303153    14.781339 
15033000    2009.9967    -683.7909    295391.67    14.994845 
15033500    1963.1655   -676.74161    302361.75    14.961642 
15034000    2138.7168   -620.11056    303744.47     14.71814 
15034500    2008.8973    -611.5651    294551.25    14.498967 
15035000    2126.1169   -623.01446    306769.89    14.560261 
15035500    1976.9114   -617.53612    281629.82    14.545726 
15036000    1997.6261   -625.21205    296268.19     14.53453 
15036500    2036.7335   -611.90757    301942.64    14.516104 
15037000    2255.0961   -660.72648    301085.29    14.653422 
15037500    1895.5817   -619.90067    296293.64    14.499647 
15038000    1963.2542   -680.22656    280522.34    14.825253 
15038500    1879.8006   -627.59647    299514.42    14.584097 
15039000    2024.5052   -649.77583    280654.44    14.665878 
15039500     2121.838   -659.92255    311546.27    14.729468 
15040000    1969.7045    -644.4889    281252.74    14.709661 
15040500    1980.9357   -661.67704    309541.52     14.72333 
15041000    1949.1542   -665.31009    305293.54    14.723951 
15041500    1875.3414   -624.19904    296670.48    14.496061 
15042000    1920.6537   -652.53147    289363.36    14.723577 
15042500    1912.8658   -662.42598    291321.47    14.744325 
15043000    1853.5726   -599.97422    319466.02    14.481654 
15043500    2096.3858   -626.78126    297279.58    14.603997 
15044000    2187.2846   -642.90124    287152.62    14.674079 
15044500    1983.0979   -645.28445    297176.82    14.752919 
15045000    2045.0009   -669.12392     297292.9    14.816566 
15045500    2010.9107   -674.47337    298038.41    14.841526 
15046000    1996.6364   -637.91118    298297.12    14.637064 
15046500    1913.3972    -655.7866    315507.44    14.651252 
15047000    1871.2211   -647.77175    309503.39    14.655307 
15047500    1893.4325   -672.73599    282723.26     14.76069 
15048000    1986.0798     -642.942    298612.67    14.686195 
15048500    2042.5706   -686.61569    286530.19     14.85334 
15049000    1949.1979   -620.27965    295538.03    14.519157 
15049500    1971.4628   -615.56161    278137.07    14.560191 
15050000     2044.897   -604.41086    309462.23    14.518977 
15050500    2057.1383   -613.54466    304403.63    14.517619 
15051000      1848.19   -658.42712    304773.85    14.775828 
15051500     2067.311   -645.57923    301462.36    14.655499 
15052000     2072.554   -631.17313    291561.91    14.622144 
15052500    2090.5792   -616.77498    291705.72    14.522094 
15053000    2071.7331   -644.02036    308021.44    14.646839 
15053500    2073.8301   -693.92268    299316.54     14.94819 
15054000    1898.8242   -666.58427    300661.94      14.7443 
15054500     2023.472    -734.7777     305609.3    15.235827 
15055000    2064.6267   -742.42635     309683.9    15.303594 
15055500    1978.4187   -762.56964    287826.64    15.433227 
15056000    1866.5896   -745.07793    310844.44     15.33146 
15056500     2068.137    -732.8294    305268.33    15.364508 
15057000    1818.2737   -746.04457    304478.48    15.450478 
15057500    1952.4324   -748.64443    299416.54    15.394944 
15058000    1928.1475   -749.89461    308986.68    15.323382 
15058500    1894.3635   -734.01126    304315.06    15.309431 
15059000    2046.3352   -747.79234    299248.51    15.471101 
15059500    2046.1021   -764.30875    297399.09     15.68037 
15060000    1911.3279   -755.00315    301203.78    15.778876 
15060500    2069.7708   -759.03702    304737.15    15.723759 
15061000    1910.5977   -756.76034    298472.65    15.642387 
15061500     2183.125   -733.46462    304015.58    15.354641 
15062000    1838.3781   -731.84765    301282.72    15.420678 
15062500    1914.5777   -730.06776    302771.61    15.276385 
15063000    1912.9436   -738.36709    300513.47    15.392734 
15063500    1965.0891   -729.23875    300004.15    15.363105 
15064000    1937.5688   -610.98988    305833.06    14.825633 
15064500    1899.2761   -703.25825    296965.55    15.457335 
15065000    1881.7926   -682.30332    296948.03    15.299007 
15065500    2035.2873   -631.50179     308528.4    14.998312 
15066000    2234.9049    -739.4422    306233.02    15.503277 
15066500    2009.0374   -770.94814    297585.69    15.813589 
15067000    1961.4213   -739.40118    300974.61    15.560714 
15067500    1989.3138   -784.90133    286777.96    15.875184 
15068000    2196.4145   -777.66339    307639.53     15.76618 
15068500    1910.1305   -750.61482     296224.9    15.519115 
15069000    2080.4709   -756.31292    293225.17     15.46478 
15069500    2052.3131   -752.21892    295431.63    15.409602 
15070000     2093.402   -695.22824    299620.96    14.982573 
15070500    1966.8925   -692.30654    287620.24    14.858582 
15071000    1953.1886   -704.28331    299671.82    15.006752 
15071500    2144.5216   -708.72667    304279.01    14.811815 
15072000    2073.6265   -695.74264    298565.31    14.829616 
15072500    1872.9695   -686.88212    294763.21    14.849502 
15073000    2050.0359   -693.83236    304739.59    14.784239 
15073500    2015.4345   -746.18398    302043.94    15.224118 
15074000    1936.8568   -771.67434    299141.91    15.407553 
15074500     2136.686   -675.39184    301678.09    14.806933 
15075000    1888.3626   -651.34129    311581.38    14.715069 
15075500    2166.3693   -737.92958    302000.88    15.331618 
15076000    2030.2663   -745.95851    303754.42    15.519557 
15076500    1927.9848   -773.97161    295792.67    15.531255 
15077000    2051.0443   -765.89258    292344.48    15.543835 
15077500    2145.9372   -651.42228     317784.2    14.715002 
15078000    1907.1111     -719.542    292007.86    15.158341 
15078500    2109.9658   -701.92127    303943.13    15.053956 
15079000    1950.8434    -728.5803    302911.01    15.143332 
15079500    2024.2991   -706.50496    300763.03    15.202634 
15080000    2059.8383   -716.67557    300101.52    15.193804 
15080500    1994.9362    -735.6392    298476.01    15.209619 
15081000    1899.4353   -762.34525    296453.36     15.36477 
15081500    2071.3453   -681.16063    296889.59    14.931742 
15082000    2139.6187   -706.80865    304448.05    15.080801 
15082500    2078.8056    -763.5456    287473.92    15.557074 
15083000    1934.9361   -777.03823    301085.62    15.604952 
15083500    2038.3873   -789.77151    293029.86     15.72363 
15084000    1942.0566   -795.13693     292650.7      15.7971 
15084500    1970.8999   -789.86497     304079.7    15.776621 
15085000    2071.7576   -791.16417    276654.08    15.862783 
15085500    2032.5711   -784.41547    299949.64    15.581284 
15086000    1995.8513   -660.32581    303021.16    14.792566 
15086500     1775.907   -724.51483    295265.61    15.196076 
15087000    1952.7495   -716.31861    299543.95    15.165236 
15087500     2103.285   -719.42526    297888.39    15.156336 
15088000    1897.0145   -713.23254    298252.15    15.161272 
15088500    2019.7265   -677.62432    301113.87    15.028535 
15089000    2299.1626   -731.96148    309400.33    15.534026 
15089500    1885.0854   -688.22356    298842.34     15.31089 
15090000    2137.4911   -687.84877    301461.45    15.292587 
15090500    2011.2844   -706.22432    297325.51    15.248428 
15091000    1877.5938   -716.14977     297493.2      15.0734 
15091500    1815.6999   -680.31982    290863.52    14.843705 
15092000    2058.4878   -764.31831    293830.67    15.556903 
15092500    2127.1844   -683.95631    303841.63    15.021976 
15093000    1908.6775   -712.30917    297574.19    15.345605 
15093500    2008.3287   -726.71864    296253.78    15.637788 
15094000    1834.5271   -672.92315    302673.56    15.212343 
15094500     2051.534   -695.81243    297728.31    15.425128 
15095000    2012.5081   -721.89047    295572.77    15.599856 
15095500    1920.7489   -763.64811    308177.71    15.831124 
15096000    1942.0501   -755.95838    290484.45    15.887172 
15096500    2067.3905   -764.36053    296820.62    15.883581 
15097000    2004.1829   -718.11406    298209.83    15.576814 
15097500    2036.2967   -669.14985    301891.33    15.270572 
15098000    2000.3101   -718.89079    301352.84    15.493982 
15098500    1783.3063   -713.07609    298843.21    15.269591 
15099000    1875.3903   -645.73111    300458.54    14.831434 
15099500    1961.1413   -641.06737    305530.88    14.739765 
15100000    1860.5659   -763.39268    294868.28    15.645802 
15100500    2014.4431   -711.88622    299820.32    15.148317 
15101000    2073.3036   -659.82651    301324.97    14.824955 
15101500    1801.8924   -625.13697    295613.27    14.820969 
15102000    1882.2851   -629.45478    295556.91    14.863959 
15102500    1918.1531   -618.85332    306917.61    14.857911 
15103000    2033.8375   -635.49076    305639.46    14.920555 
15103500    2182.7279   -709.63511    296491.57     15.57665 
15104000     2033.276   -660.84472    301640.28    15.321354 
15104500      1918.63   -687.49927    297637.04    15.480957 
15105000    1845.3474   -680.10786    296623.96    15.367135 
15105500    2164.5685   -696.53901    299541.33    15.525563 
15106000    1970.7481   -653.29549    302121.68    15.267328 
15106500    2057.6499   -704.50006    303572.66    15.639403 
15107000     1987.876    -747.3652    302953.49    15.828682 
15107500    2248.6128   -754.15408    302340.33    15.781662 
15108000    2143.8334   -742.25039    304090.78    15.876694 
15108500    1812.4846   -668.33977    296310.58    15.428624 
15109000     2039.762   -605.56084    301774.69     14.92247 
15109500    1881.8323   -641.50882    301413.95    15.208952 
15110000    1935.4609   -708.95237    295598.11    15.803675 
15110500    2007.7734   -708.99435    299555.04    15.687799 
15111000    2009.4104   -732.64277     299622.5     15.82602 
15111500    2121.2766   -634.12578    301634.51     15.13822 
15112000    1957.8658   -615.45089       293648    15.023859 
15112500    1944.4716   -618.30143    287201.61    14.911969 
15113000     1962.965   -689.64968    297624.54      15.4906 
15113500    2047.2084   -746.19663    297662.31    15.888102 
15114000    1809.2792   -759.12195     285053.9    16.063663 
15114500    2056.3211   -685.45398    306005.59    15.325752 
15115000    2189.5746   -689.72816     298711.9    15.424053 
15115500    1943.4725   -685.29177    299147.79    15.392147 
15116000    2091.2592   -639.86523    301565.02    15.119471 
15116500    1979.5366   -688.75437    299101.96    15.483259 
15117000    2069.2043   -677.31604    300415.05     15.39362 
15117500    1964.7955   -630.46726    304433.35    14.946333 
15118000    2026.9717   -650.66218    297710.55    15.058728 
15118500    2165.6181   -746.13441    287722.36    15.697972 
15119000    2071.0539   -672.53457    305385.95    15.269957 
15119500    1942.6868   -685.07907    300606.73    15.299768 
15120000    2184.4604   -679.47012    305053.52    15.271727 
15120500    2192.3076   -715.43855    297836.58    15.557375 
15121000    2047.8925   -631.35467    298385.81    14.918704 
15121500    2121.3842   -652.82865    300206.09    15.077318 
15122000    2110.7889   -695.13165    298183.67    15.474785 
15122500    2000.9738   -665.27364    301401.36     15.29457 
15123000    2027.0273     -694.734       297922    15.483791 
15123500    2218.3115   -680.94805    303222.46    15.341204 
15124000    2109.9398   -673.51935    305622.61    15.305286 
15124500    1872.5925   -624.87913    303205.13    14.946614 
15125000    1956.8634   -703.30338     296826.8    15.533329 
15125500    1859.8558   -637.63628    294074.78    15.141361 
15126000     2046.923   -618.39833    298654.06    14.978163 
15126500    2175.0377   -607.12345    301263.78    14.962536 
15127000    2024.0285   -633.60231    304362.07    15.058682 
15127500    2138.9842   -626.00165    305508.21    14.990972 
15128000    2058.8714   -654.79585    305816.75    15.213589 
15128500    2131.4079    -691.7885    303960.03    15.493838 
15129000    1866.3276   -688.92585    301948.92    15.477011 
15129500    2165.0017   -669.35624    305921.53    15.375197 
15130000     2104.049   -722.52012    300090.56    15.744984 
15130500    2175.3218   -626.57951    296415.01    14.933286 
15131000    2016.8229   -636.60716    299128.61    15.068345 
15131500    1736.8178   -635.04831    291658.94    15.113418 
15132000    1952.2584   -681.86251    299404.33    15.512967 
15132500    1982.2973   -729.31315    305045.98    15.906419 
15133000     1864.976   -724.87599    297614.61     15.85447 
15133500    2002.5124   -694.67755     297881.2     15.55381 
15134000    1950.4015   -697.31505     297123.9    15.459305 
15134500    1989.6728    -671.0209    295475.49    15.346746 
15135000    2103.9982   -630.45205    304567.37    14.962618 
15135500    2088.7749   -684.63945    299288.68    15.234561 
15136000    1804.1497   -644.03511    295133.26    15.142609 
15136500    1844.4869   -722.96497    293419.13    15.745259 
15137000     2151.718   -713.39581    302565.32    15.570842 
15137500    1951.6529   -637.83649    304407.65     15.12278 
15138000    1890.7332   -633.57188    299693.67    15.003908 
15138500    1952.8382   -589.03693    310056.77    14.728642 
15139000    2299.4677   -734.61593    302246.97    15.638782 
15139500     1847.598   -764.09633    294147.12    15.890161 
15140000    1998.0434   -773.03833    291801.39    15.833227 
15140500    2260.8926   -726.94543    305340.21     15.33179 
15141000    1971.2032   -751.58571     301187.3    15.511472 
15141500    2186.4932   -739.71459     307210.4    15.356177 
15142000      1812.97   -754.66217    302780.73    15.589239 
15142500    1902.4777   -735.93672    298147.23     15.31556 
15143000    2017.4533   -758.40945    294652.79    15.587583 
15143500     1930.851   -739.25032    300952.28    15.383461 
15144000    2015.9838   -761.96035    297822.72    15.613064 
15144500    1937.9024   -748.36088    298505.12    15.542167 
15145000    2003.0129   -762.42193    298865.88    15.802996 
15145500    2154.9782   -706.77297    305843.08    15.239072 
15146000    1864.7918   -578.14727    320236.76    14.546613 
15146500    2168.8188   -625.37449    298824.08    14.918348 
15147000    2004.7394   -613.54299    297833.05    15.041171 
15147500    1966.7028   -628.26456    303292.09    15.043735 
15148000    1979.8159   -734.13036    298518.01    15.781924 
15148500    2083.8551   -724.19067    294876.43    15.873559 
15149000    2061.6955    -665.7239    298745.79     15.35404 
15149500     1875.859   -696.94781    298964.84    15.419913 
15150000    2066.7709   -699.75812    302070.56    15.582174 
15150500    1974.3709   -648.12169    298875.86    15.146269 
15151000    2076.2446   -643.46344    307489.64    14.963117 
15151500    1954.4139   -666.89234    299355.83    15.202486 
15152000    1834.5235   -702.92972    296847.92    15.504717 
15152500      1975.37   -682.49286    297189.84    15.349291 
15153000    2064.6667   -629.11921    294403.41    14.993982 
15153500    2240.9905   -699.09752     295911.4    15.405428 
15154000    2066.3519   -617.97219    303660.29    14.940115 
15154500    2149.6325   -682.15432     300500.6    15.360823 
15155000    2031.7682    -741.3491    298131.93    15.592836 
15155500    2079.5905   -746.51285    299453.62    15.643598 
15156000    1958.2854   -737.96332    303658.84    15.619784 
15156500    2022.7604   -674.86691       309819    15.195414 
15157000    1899.7217   -702.02873     290536.7    15.570444 
15157500    1988.2616   -632.77662    297996.96    14.964255 
15158000    2019.9196   -634.27882    301023.03    14.827377 
15158500    2051.2374   -632.06865    301498.12    14.930803 
15159000    2040.3754   -691.06122    299765.44    15.448448 
15159500    1933.4131   -672.13682       302161    15.265573 
15160000    2101.0551   -618.37017    303421.75    15.016817 
15160500    1990.4708   -703.43211    300101.19    15.453718 
15161000    1933.6725   -693.31754    300264.03    15.408955 
15161500    2052.4885   -678.72922    306410.52     15.38882 
15162000    2140.7534    -702.0519    300772.53    15.508682 
15162500    2159.0228    -600.2613    311910.07    14.853366 
15163000    2031.1581     -706.064    298770.71    15.726385 
15163500    1975.2825    -708.0827    299076.45    15.770656 
15164000    1927.9394   -715.50146    299058.81     15.73917 
15164500    1947.6339   -750.09653    292183.18    15.951551 
15165000    2048.9398    -655.5825    293899.42    15.194691 
15165500    1993.2625   -617.73733    299913.98    14.908762 
15166000    2185.2161   -623.58317    294107.61    15.169458 
15166500    2025.7244   -667.58891    300652.95    15.246474 
15167000     2002.596   -707.75692    298931.95    15.281574 
15167500    2054.7271    -766.6544    293332.22    15.722807 
15168000    1955.8894   -758.83493    296606.51    15.753068 
15168500    2030.5952   -732.82702     303982.9     15.47278 
15169000    1876.5613   -738.58736    303116.14    15.712418 
15169500    1993.6593   -735.37561    300732.91    15.666537 
15170000    1930.2219   -692.71991    294854.19    15.606247 
15170500    2114.7419   -577.89404    310593.17    14.770441 
15171000    1947.2052   -698.60085    297177.39    15.591898 
15171500    1951.1428   -729.87312    295945.53    15.925706 
15172000    2006.2214    -724.5832    299641.04    15.794872 
15172500    2106.8995   -748.24939    305110.11    15.811666 
15173000    2147.9568   -715.61361    300383.11    15.390166 
15173500    1964.9447   -567.50236    308290.37    14.550722 
15174000    2085.1409   -631.53031    299612.93    14.878852 
15174500    1914.4272   -618.40495     298328.3    14.946382 
15175000    1961.2085     -721.373    298243.52    15.646312 
15175500    1908.1112   -763.19467    301777.28    15.848522 
15176000     1999.225   -758.20403    305100.07    15.745225 
15176500    1940.2726   -764.24876    286366.11    15.843768 
15177000    2018.3477   -762.75214    281247.73     15.86663 
15177500    1904.8423   -781.96333    302955.39    15.874462 
15178000    2023.2574   -763.21274    310735.51    15.775055 
15178500     2113.672   -746.62561    305234.32    15.420892 
15179000    2015.1152   -749.67067    307726.39    15.384042 
15179500     1933.251   -753.98512    298779.84    15.410175 
15180000    2226.8064   -744.22958    308346.34    15.259379 
15180500    2151.7691   -724.97177    289608.09    15.121968 
15181000    1937.5899   -705.05598    294110.95    15.045408 
15181500    2010.8507   -695.34783    300790.01    14.934208 
15182000    2104.9214   -735.58427    306153.29    15.278067 
15182500    1884.7577   -749.25262    299994.02    15.407843 
15183000    1919.1851   -753.85011    300075.82    15.474185 
15183500     1932.488   -759.65528    290042.41    15.502648 
15184000    1974.0874   -703.60351    297575.62    14.961537 
15184500    1860.8215    -699.9181    304162.56    14.959001 
15185000    1934.2972   -726.92702     294527.3    15.104079 
15185500    2006.0854   -757.87893    290784.28    15.361286 
15186000    1932.8952    -643.9781    307657.44    14.650335 
15186500      2023.97   -641.90941    299447.42    14.677581 
15187000    2047.1584   -671.95301     285266.6    14.761907 
15187500    2028.9901    -657.4633    315465.07    14.673569 
15188000    1972.7604   -752.68365    297170.63    15.406235 
15188500    2063.1729   -750.29117    303000.17    15.386456 
15189000    2083.2753   -749.36405    298526.88    15.331997 
15189500    1822.6762   -742.93355    299876.63    15.192735 
15190000    1865.0489   -731.84488    292282.83    15.109365 
15190500    1946.5438    -694.8582    288495.65    14.879205 
15191000    1929.8999   -683.71203    295098.69    14.810896 
15191500    1854.3225   -660.32243    322784.13    14.678629 
15192000    2030.3833   -719.75254    303094.37    15.076675 
15192500    2061.9966   -753.46598    295766.09     15.33949 
15193000     2139.897   -735.51584    305779.82    15.205291 
15193500    2036.9261   -743.19628    293152.04    15.267324 
15194000    1896.8156   -743.56892    304972.83    15.283894 
15194500    2053.4173   -751.23862    308752.42     15.31793 
15195000    1937.6936   -665.27953    305296.71    14.784651 
15195500    1857.3179   -691.68585    292490.14    14.866318 
15196000    1993.3022   -707.04335    292425.58    14.945224 
15196500    2114.2187   -707.56548    310236.57    14.991568 
15197000    2103.5697   -705.35801    302626.76    14.983741 
15197500    1899.9597   -738.75117    286206.41    15.175142 
15198000    2083.1648   -720.43404    303990.43    15.084051 
15198500    2107.8376   -751.93883    304265.25    15.312428 
15199000    1937.5227   -746.56287    301921.93    15.279059 
15199500    1969.8891   -733.05621    296040.84    15.169447 
15200000    1844.7137   -742.77351    299750.39    15.309643 
15200500    2024.4469   -727.30792    305637.92    15.162558 
15201000    2042.9109   -726.57253    306230.83    15.157694 
15201500    1899.6741   -700.93822    299315.23    14.954509 
15202000    1885.3663   -725.83543     310331.7    15.159946 
15202500    2117.3693   -709.96827    288002.54    15.002493 
15203000    2041.4309   -666.02574    290464.49    14.699626 
15203500    2030.9232   -629.31929    296691.15    14.540363 
15204000    1958.1861   -625.54977    293213.29    14.579904 
15204500    1801.9026   -624.55278    292681.95    14.576367 
15205000    1945.1743   -657.98594     307372.2    14.770272 
15205500    2011.0466   -671.07387    294791.92    14.814174 
15206000    1951.9002   -693.44819    297788.06    14.993562 
15206500    2052.1574   -601.78829    307682.61    14.521235 
15207000    1935.2172   -601.25789     302053.3    14.530455 
15207500    2091.9906   -645.13343    311071.13    14.741107 
15208000    2055.9034   -595.22477    299446.53    14.497626 
15208500    2050.5819   -587.89271    306193.93    14.516482 
15209000    1780.9723   -638.74815    292473.28    14.788416 
15209500    1964.7042   -592.50029    283121.65    14.509691 
15210000    2030.6006   -683.02692    300261.85    14.921546 
15210500    1881.2146   -674.51933    293502.22    14.894067 
15211000    2020.4364   -651.48482    307957.87      14.6969 
15211500    1912.5144   -667.74083    302547.07     14.86657 
15212000    1953.9466   -616.98136    291394.45    14.595017 
15212500     2192.041   -675.12334    301298.06    14.873159 
15213000    1888.6358   -622.43673    282079.05    14.689363 
15213500    2117.3483   -678.19376     293628.7    14.915199 
15214000    2113.3081   -613.27173    308558.64    14.600792 
15214500    1948.3754   -606.25892    302541.34    14.542422 
15215000    1999.2208   -593.22512    306108.59    14.519799 
15215500    1930.7903   -680.87595     296100.2     14.91199 
15216000    1975.1139   -746.61707    290134.89    15.331452 
15216500    2054.0756   -633.57553    305057.07    14.569137 
15217000    1985.3307   -676.92505    303414.54    14.843842 
15217500    2192.6644   -658.88572    296081.86    14.853302 
15218000     1895.352   -696.16148     295284.6    15.022329 
15218500    1892.9321   -703.72559    302829.55    15.078106 
15219000    1987.0956   -747.67491    295220.16    15.404606 
15219500    1872.3946   -736.27692    308015.63    15.272924 
15220000    2124.0524   -750.64865    294259.74    15.398145 
15220500    1821.0857   -620.26151    305064.33    14.749125 
15221000    1903.3872   -645.71075    296899.37    14.972677 
15221500    1950.3976   -635.31789    300495.52    14.935525 
15222000    1910.8135   -680.80942    300400.22    15.340345 
15222500    1815.9633   -736.75548    301688.21    15.627209 
15223000    2070.0534   -761.87965    303664.05    15.856641 
15223500    2106.4326    -690.8862    302666.07    15.247958 
15224000    1952.8734   -677.72343    303566.96    15.273254 
15224500    1978.0359   -699.42737    300711.72    15.464412 
15225000    2082.7689   -671.76693    303400.72    15.168508 
15225500    2075.4471   -585.75453    319728.79     14.58383 
15226000    1952.2463   -594.99592    291024.79    14.620308 
15226500    2017.7464   -601.69594    292442.47     14.65916 
15227000    1857.9789   -647.41269    292150.69     14.98045 
15227500     2197.892   -638.97203    297448.28    15.024331 
15228000    1911.2795   -686.48943     293207.9    15.441559 
15228500    1907.3822   -612.00441    311255.23    14.867907 
15229000    1904.8302   -715.43697    290039.27    15.705942 
15229500    2043.4746    -644.3717    303970.78    15.110528 
15230000    1966.4614   -644.75491    303857.91    15.041686 
15230500      1859.82   -688.41493    300744.63    15.437833 
15231000      2017.28    -695.1983    304512.46    15.380402 
15231500    1993.1985   -706.38838    302474.27    15.590122 
15232000    1987.9831   -660.25522    301437.24    15.173989 
15232500    2046.4762   -628.79833    295768.09    14.872962 
15233000    2183.5537   -619.58671    295750.92     14.73193 
15233500    2143.9217    -734.3259    297777.51    15.483382 
15234000    1892.9704   -757.00086    296174.52    15.744704 
15234500    2066.6578   -763.07415    301783.28    15.681036 
15235000    1908.8568   -741.60559     305219.7    15.436405 
15235500    2038.4149   -711.37598    308152.33    15.233351 
15236000    2184.9092   -758.79992    303815.71    15.607928 
15236500    2093.8738   -742.54822    297547.38    15.386919 
15237000    1903.5372    -606.2428    305751.32    14.615636 
15237500    1980.2304   -642.06217    295296.82    14.786897 
15238000    1909.8862   -750.06606    298760.27    15.417308 
15238500     2140.402   -762.84351    302466.75    15.659249 
15239000    2056.3123   -691.93058     297386.4    15.043164 
15239500    2021.8053   -656.75653    293773.07    14.874651 
15240000    2041.6984   -720.91705     298293.2    15.209921 
15240500    1925.9898   -730.86507    308419.89    15.315675 
15241000    2123.3018   -750.86727    303438.59    15.476132 
15241500    1878.6098   -712.37801    302753.13    15.235825 
15242000    1840.4723   -614.46792    308256.63    14.653394 
15242500    2037.7985   -676.91761     295536.9    14.971777 
15243000    2048.9117   -587.62331     318313.8    14.497742 
15243500    2050.2478   -632.03453    304711.32    14.744702 
15244000    1832.2054   -661.11928    306625.87    14.802424 
15244500    2101.5087   -653.62975     309244.7    14.742656 
15245000    2217.3174   -687.02793    290174.74    14.953444 
15245500    1988.4477   -643.07218    295603.45    14.691851 
15246000    1921.7541   -695.70024    294307.99    15.054193 
15246500    1963.6386   -630.07613    291536.89    14.693659 
15247000    1994.7615   -682.45654    297491.99    14.925637 
15247500    2095.7698   -663.09071    300297.92    14.767534 
15248000     1910.102   -635.21473    297789.87    14.675072 
15248500    2043.7796   -627.43052    299695.45    14.707856 
15249000    1972.6895    -662.2889     306485.6    14.786482 
15249500    1911.1387   -667.70441    299127.85    14.909773 
15250000     2027.191    -610.9078    308078.57    14.527133 
15250500    2019.0031    -633.8787    304817.73    14.669186 
15251000    2025.4831   -600.96261    298985.78    14.523073 
15251500     1876.132   -585.99944    296596.08    14.519299 
15252000    2121.3899    -595.6767    300269.65    14.548615 
15252500    2054.9071   -685.06185    298973.43     14.89792 
15253000    1951.4161   -673.77397    298814.58     14.79205 
15253500    1875.3567   -688.09481    294090.49     14.86074 
15254000    1883.5429    -679.2724    307694.95    14.828632 
15254500     2048.532    -628.7112    315382.02    14.624577 
15255000    2073.8153   -660.53498    297186.64    14.837854 
15255500    2166.4872   -660.26034    296454.49    14.798496 
15256000    1943.7949   -634.45888    302652.78    14.772598 
15256500    1926.5731   -628.00319    294851.52    14.617556 
15257000    2105.2259   -646.44038    300580.67    14.710817 
15257500    1870.1625    -723.0002    306681.51    15.254906 
15258000    1952.7424   -766.55425     295187.6    15.665027 
15258500    1984.8293   -758.42692    291166.63    15.460746 
15259000    2047.9305   -750.46669    300976.89    15.441703 
15259500    1915.3844   -740.15449    303179.31    15.342802 
15260000    2062.5987   -748.24133    300305.96     15.38258 
15260500    2082.5619   -743.78403    298514.27    15.325485 
15261000    1887.6051   -728.98801    302210.42     15.14995 
15261500    1985.6996   -757.74361    290477.84    15.535039 
15262000    1830.2144   -756.09481    297064.91    15.508205 
15262500    1790.9356   -747.79803    304680.21    15.333675 
15263000    2012.3138   -725.76031    303253.27    15.123461 
15263500    1898.3697   -708.55462    308221.49    14.958904 
15264000    1908.1432   -664.38401    299775.77    14.711429 
15264500    2020.3776   -714.45787    296341.79    15.003295 
15265000    1997.1814   -709.78449    297427.87    14.975226 
15265500    1964.9426   -672.59361    294139.89    14.800375 
15266000    1946.3116   -610.12916    288896.68    14.521919 
15266500    1834.8286   -609.37175    296278.43    14.504975 
15267000    2007.0477   -615.95995    274210.86    14.505962 
15267500    2063.6032   -606.31173    279156.07    14.554805 
15268000    2139.9032   -599.25266    303577.07    14.535207 
15268500    1994.9367   -612.91849    313318.64    14.498578 
15269000     2091.448   -611.93937    299538.39    14.540898 
15269500    2112.7554   -598.98071    338850.28    14.471032 
15270000    1979.3981   -626.79516    304925.12    14.547328 
15270500    1997.9476   -620.41068    305010.96    14.503794 
15271000    2090.1144   -611.49332    296669.07    14.502316 
15271500    2146.6506    -707.4152    299616.15    15.006706 
15272000    1971.1083   -724.61694    297690.99    15.086899 
15272500    1961.3839   -722.65126    300848.56    15.080493 
15273000    2034.7562   -669.23078    298303.05    14.704735 
15273500    1960.5726   -733.22657    292327.06    15.146728 
15274000    2036.8452     -755.679     295734.8    15.397345 
15274500     2020.222   -741.65751    306580.87       15.288 
15275000    2031.8905   -759.71578    291699.45    15.435602 
15275500    2015.3399   -749.78051    299095.17    15.418881 
15276000    1930.7395   -746.10005    312963.01    15.330968 
15276500    1963.7319   -760.77109    293267.78    15.473617 
15277000    2129.2401   -754.01799    300341.53    15.440799 
15277500    1895.6899   -760.13658     289150.7    15.490705 
15278000    1842.3434   -744.48214    307203.96     15.34637 
15278500    2168.7284   -734.98735    302303.43    15.260311 
15279000    1769.9006   -738.48241     307552.9    15.432995 
15279500     1997.723   -757.59021    301962.45    15.669746 
15280000    2024.5583   -751.22902    303418.01    15.599263 
15280500     2089.447   -755.08153    305410.36    15.724393 
15281000    2043.4539   -682.88568     301212.3    15.382003 
15281500    2044.9149   -666.82115     300160.1    15.333085 
15282000    1877.6137   -715.31485    295701.68    15.793409 
15282500    1918.6876   -712.90937    299993.13    15.723461 
15283000    2012.7166   -755.75566    301338.69    15.846084 
15283500    1927.9087   -749.88316    298622.56    15.923146 
15284000    2017.3516   -730.06451    298993.79    15.642071 
15284500    2097.5803   -600.79504    310242.06    14.928412 
15285000    1927.7976   -623.89091    299992.19    15.031224 
15285500     2093.121   -603.14593    303396.66    14.818888 
15286000    2139.3435   -601.41271    306948.22    14.845011 
15286500    1876.4292   -670.43938    299285.02    15.369843 
15287000    1988.2461   -710.16028    290079.07    15.892744 
15287500    1920.1638   -633.83647     303659.8    15.027746 
15288000    2028.9848   -640.90256    299813.73    15.230207 
15288500    2009.9573   -684.25447    296339.53    15.520365 
15289000    2020.0485   -650.39875    302593.28    15.317317 
15289500     2204.062   -720.26476    301387.72    15.739726 
15290000    2044.6044   -646.29785    309470.75    15.265061 
15290500    2042.3872   -619.58883     298287.5    14.992414 
15291000    2047.2464   -622.15992    303099.95    14.930362 
15291500    2008.2071   -630.98813    301683.05    14.959846 
15292000    1940.4379   -622.83673    295697.08    15.014339 
15292500    1973.7034   -709.92803    297507.63    15.602923 
15293000    1940.8993   -695.90198    301615.41    15.650845 
15293500     1962.974   -653.84289    307102.99    15.168645 
15294000    2030.4026   -731.86169    301640.82    15.824403 
15294500    1945.8909   -645.68376    300346.28    15.128293 
15295000    1932.0016   -665.29611    300280.21    15.290274 
15295500    2056.0477   -759.88745    278412.22    16.088638 
15296000    1964.7932   -738.13761    300500.63    15.768261 
15296500    1922.3735    -756.2963    299465.42    16.083883 
15297000    1964.7545   -747.61341    304377.49    15.974549 
15297500    2029.9239   -708.24576    300586.98    15.721539 
15298000    2028.9608   -646.96064    299379.64    15.272775 
15298500    1801.1977   -610.57093     300784.1    14.870094 
15299000    1962.9776   -617.64331     296721.4    15.010963 
15299500    1893.9206   -718.69145    295969.79    15.876579 
15300000    2029.5062   -714.15874     304379.8     15.75552 
15300500    2042.8409   -751.58154    299965.92    16.046519 
15301000    1944.3867   -749.00232    293180.92    15.959934 
15301500    2154.6278   -760.99707     298016.5    15.916115 
15302000    1749.5535   -742.91086     301371.8    15.990656 
15302500    2038.2756   -738.33483    298746.78    15.775021 
15303000    1845.3947   -654.47493    301666.96    15.297356 
15303500    1978.2647   -691.82793    299576.88    15.539237 
15304000    1843.7763   -729.11187    295718.42    15.879808 
15304500    2219.2805   -700.86511    298145.69    15.641358 
15305000    2035.8321   -631.53927    297759.33    15.139876 
15305500    1909.8108   -669.85004    299234.11    15.397828 
15306000    1986.9856   -694.58431    296756.63    15.506302 
15306500    2031.5874    -667.1228    301816.28    15.340312 
15307000    1843.1558   -680.74253    298122.65    15.464886 
15307500    2036.4255   -662.53848    297617.53    15.340612 
15308000    2083.3119   -662.62266    296205.62    15.277494 
15308500    2085.2285   -723.99698    300368.93    15.814722 
15309000     1994.773   -720.28366    301092.99    15.739048 
15309500    1920.8482   -721.49416     297388.9    15.703698 
15310000    1901.7687   -681.80059    300137.33    15.370625 
15310500    1887.4625    -697.9514    297191.95    15.418562 
15311000    2063.3927   -685.72844    306621.42     15.22285 
15311500    1945.9741   -688.86574    304984.23     15.30748 
15312000    2034.7509   -757.39515    299168.13    15.632978 
15312500    1967.5867   -691.80275    301466.03    14.945821 
15313000    1768.9267   -698.80734    301098.25    14.993188 
15313500    1925.3828   -718.23851     298693.9     15.09443 
15314000    2145.3837   -689.15199    301067.46    14.882783 
15314500    1904.6201    -757.7828    295464.37    15.548132 
15315000     1885.173    -789.6181    279165.36    15.734266 
15315500    2021.7192   -797.13916    295957.77    15.697919 
15316000    1995.9724   -788.12724    302319.26    15.684401 
15316500    2174.7141   -761.75458    299072.27     15.48183 
15317000    2099.2662   -762.24771    294007.59    15.484482 
15317500    2012.5252   -754.32338    301771.46    15.404457 
15318000    1993.9059   -784.48653    298316.38    15.659372 
15318500    1957.4055   -738.57048    299889.49     15.27277 
15319000    1886.1176   -674.31062    292568.66    14.876585 
15319500    1963.3605   -770.40689    283430.02    15.610612 
15320000     2031.781   -748.14038    297612.94    15.313662 
15320500    2049.6449   -658.45502    312593.87    14.766361 
15321000    2021.6805   -697.39225    297473.21    14.913803 
15321500    1958.5245   -689.59014    306486.96    14.828242 
15322000    1978.2115   -690.97563     294258.4    14.879918 
15322500    2029.2663   -730.79105    304702.04    15.106633 
15323000    1714.7275   -713.25409     296698.9    15.149462 
15323500     2115.451   -718.02505    299407.78    15.170281 
15324000    2059.8657   -741.12225    298695.64    15.235281 
15324500    1968.7241   -713.16503    298860.13    15.003469 
15325000    1985.1858   -653.32226    296402.81    14.695577 
15325500    2007.7251   -753.94741    300517.59     15.39303 
15326000    2061.9334   -778.59878    282568.51    15.659176 
15326500    1976.8939    -785.8125    296482.73     15.70603 
15327000    2091.2027   -780.44433    309496.82    15.595589 
15327500    1916.0294   -780.68294    306717.57    15.551066 
15328000    2003.4284   -763.80233    295275.34    15.311522 
15328500    1988.1073   -756.88414    293318.79     15.25695 
15329000    1897.3803   -741.26742    297463.05    15.304495 
15329500    1883.4686   -750.05551    306626.35    15.451039 
15330000    2138.0424   -768.13195    301140.71    15.494884 
15330500     2105.718   -736.52735    303984.78    15.201561 
15331000    1850.0068     -661.366     300030.4    14.674492 
15331500    1954.4406   -629.27413    294915.82    14.553845 
15332000    2002.8265   -638.70113    301592.63    14.555364 
15332500    1768.8703   -633.86552    300124.93    14.557805 
15333000    1916.0531    -598.4877    348218.49    14.487607 
15333500    2042.2221   -726.15557    297073.28    15.279177 
15334000    2089.1494    -797.4381    305305.13    15.810598 
15334500    1835.5642   -786.34863     291239.6    15.807505 
15335000    2061.2036   -790.64597     303284.6    15.803624 
15335500    1846.3574   -770.51595    293456.52    15.583518 
15336000    2051.1061   -766.89915    302132.84    15.490447 
15336500     2019.595   -744.94382    304371.81    15.340791 
15337000    2034.4409   -784.81604    301430.88    15.587123 
15337500    1862.4046   -772.77498    301079.25    15.528464 
15338000    1947.6544   -786.27968    300748.75    15.649089 
15338500    2036.4375   -778.71302    304151.41    15.577387 
15339000    2001.2544   -747.22298    306470.69    15.485232 
15339500    1883.3844   -771.84612    296574.84    15.516828 
15340000    2303.3057   -672.80085    300455.69    14.813652 
15340500    2019.7797   -675.27211    295192.52    14.820062 
15341000    1882.2269   -675.48639    289647.12    14.800787 
15341500    1916.4069   -679.67566    295745.32    14.834693 
15342000    1944.7117   -674.95196    295942.22     14.82961 
15342500    2051.2382   -686.84779    299108.42    14.801895 
15343000    2063.5335   -732.28569    297979.23    15.247298 
15343500    1995.6601   -788.76495    288297.53    15.741339 
15344000    1887.5331   -791.13376    283955.71    15.871602 
15344500    2045.1922    -706.0595    301118.79    15.021283 
15345000    2052.0643   -689.47171    297138.55    14.838086 
15345500    2006.3272   -696.15769    300799.84    14.846449 
15346000     1981.589   -709.67504    293518.36    14.902085 
15346500    2176.1882   -689.41545    314096.32    14.784766 
15347000    2109.4556   -784.50755    303569.59     15.50943 
15347500    2118.0544   -781.30579    307145.03    15.562851 
15348000    2219.6095   -767.07798    301645.59    15.524685 
15348500    1997.8959   -759.31723    301541.55    15.463656 
15349000    2100.7896   -737.70275    303812.76    15.212189 
15349500    2028.3077   -675.74534     285756.6     14.86887 
15350000    2026.2795   -669.91901    295471.05    14.833049 
15350500    2059.6969   -676.92643    297472.73    14.878317 
15351000    1994.5545   -699.68633    302231.39    14.990791 
15351500    2116.8447   -751.81917    304162.72    15.286291 
15352000    2126.5047    -646.4749    312170.42    14.716016 
15352500    1838.9435   -714.55694    297771.02    15.196487 
15353000    1963.0783    -733.3112    299557.08    15.186152 
15353500    1859.7754   -735.63069    301372.35    15.334759 
15354000     1852.515   -740.46088    302112.81     15.31999 
15354500    2086.9762   -771.55169    300215.78    15.546237 
15355000    2007.1291   -743.85419    301577.21    15.462488 
15355500    1897.1452   -753.54539    290890.94    15.586348 
15356000    2133.7868   -660.01155    303016.02    14.771646 
15356500    1909.8272   -613.31202    287805.62    14.538661 
15357000     2093.858   -609.14658    323183.25    14.493686 
15357500    1885.2107   -642.20599    306427.96    14.659257 
15358000    2061.8325   -710.94392    296248.29    15.198837 
15358500    1981.8047   -716.79497    298433.67    15.052322 
15359000    2079.3468    -704.5556    304558.23    15.029685 
15359500    2058.8809   -679.38974    294273.13     14.86083 
15360000    1982.0645   -620.10423    289195.32    14.553099 
15360500    1979.5911   -608.76389    319779.62    14.495126 
15361000     2000.696   -606.68122    296636.52    14.533057 
15361500    1827.5977   -602.51903    295793.69    14.539858 
15362000    2107.7889   -614.61773    291963.62    14.530064 
15362500    1953.7899   -619.89554    290897.32    14.531123 
15363000    1933.6187    -611.2782    285363.14    14.542364 
15363500    2225.9676   -619.93852    282651.27    14.579006 
15364000    2034.6613   -603.39847    310626.62    14.524659 
15364500      1870.76   -622.96377    285436.81     14.53807 
15365000    1888.6395   -610.74473    279248.26    14.574694 
15365500    1980.5186   -620.55473    286305.04    14.549537 
15366000     1995.707   -645.91735    300985.62    14.605632 
15366500    1995.6648   -736.08772    296549.18    15.226331 
15367000    2058.1396   -671.92448    314013.53    14.718771 
15367500    1948.9257   -713.62605    290009.91    14.859233 
15368000    2091.0354   -702.62306     307462.4     14.80832 
15368500    1898.8174   -721.27672     294934.8    14.963653 
15369000    1999.8524   -654.59784    310799.54    14.509391 
15369500    1817.1914   -647.23292       291116    14.622403 
15370000    1801.1937   -729.57211    304377.67    15.105339 
15370500    2023.2048   -678.30887    296117.39    14.836698 
15371000    1789.4839   -728.28792    284972.85     15.11903 
15371500    2123.9691   -710.02875    302055.56    14.982541 
15372000    1871.6197   -743.42197    300231.12    15.301424 
15372500    1927.0572   -659.64378    307595.13    14.792406 
15373000    2115.2978   -655.26936    297983.53    14.815313 
15373500    1921.0353   -668.76201    304104.04    14.821908 
15374000    2058.0799   -715.98873    295605.96    14.968858 
15374500    2068.6281   -683.66019    293313.53    14.876245 
15375000    1796.5791   -702.55109    303798.78     15.03376 
15375500    2108.8221   -692.73302    306630.22    14.947304 
15376000    2018.9603   -797.95033    274057.88    15.832175 
15376500    1936.4819    -789.1417    301973.87    15.800479 
15377000    2080.3231   -750.90414    306400.23    15.736412 
15377500    2150.0892   -753.39669    296795.32    15.578905 
15378000    1975.0202   -678.18657    302144.14    15.007752 
15378500    1993.6689   -705.73166    291648.29    14.931396 
15379000     2096.229   -705.20752    293072.54    14.859704 
15379500    1832.3496   -695.21165    298352.71     14.86051 
15380000    2033.4065    -710.1761    303075.47    15.118791 
15380500     1989.443    -742.1815    305900.19    15.528887 
15381000    1916.7698    -757.3098    299450.48    15.489281 
15381500    1999.7065     -764.063     304243.9    15.500931 
15382000    2133.9553    -791.5548    295364.61    15.767298 
15382500    2016.1635   -759.50648    293521.22    15.234115 
15383000    1879.8134   -702.45132    284122.62     14.89716 
15383500    1960.0922   -763.71278    298163.18     15.45696 
15384000    1977.8583   -762.79547    300766.24    15.471715 
15384500     1841.402   -791.83044    309400.26    15.730149 
15385000    1904.2491    -773.2035    294525.08    15.874061 
15385500    2110.3802   -770.03848    274645.25    15.899223 
15386000    1956.4634   -679.44386     299005.6    15.310606 
15386500    2068.3857   -706.00977    297272.63    15.469114 
15387000    2163.7306    -764.6301    301353.01    15.829548 
15387500    1864.7009   -758.30033    298182.22     15.86034 
15388000    2053.5894    -743.4926    309993.17    15.594752 
15388500    2047.7219   -764.28854    288612.37    15.927705 
15389000    1952.7061   -671.95154    301576.42    15.276923 
15389500    1969.1843   -692.92497    297596.29    15.324704 
15390000     1838.743   -688.99292    299004.05    15.418135 
15390500    2063.0495   -696.23571    300876.27     15.40917 
15391000    2094.6345   -710.57768     294018.5    15.612307 
15391500    2074.6227   -620.56104    311773.54    14.937594 
15392000    1977.3225    -586.0831     319575.9    14.585013 
15392500    2095.3245   -592.91165    304105.45    14.638532 
15393000    2010.5328   -613.47486    307740.48    14.785666 
15393500    2149.8492   -726.37767    302015.05    15.687178 
15394000    2013.0752    -746.9139    302174.38    15.738519 
15394500    2033.3546   -737.82838       306974    15.574051 
15395000    2034.2597   -694.42466    299058.77    15.430226 
15395500    2101.0314   -699.68356    297697.21    15.493888 
15396000    2072.5189   -616.83525    302982.11    14.937485 
15396500    1990.4741   -699.12144    299636.65     15.48131 
15397000    1998.3789   -694.43368    297922.92    15.621979 
15397500    2023.9838   -606.26314    307292.89    14.934262 
15398000    1988.0242   -715.27383    303423.21    15.686038 
15398500    2200.6335   -708.29087    301148.95    15.639163 
15399000    2184.8559   -724.13274    300357.07    15.713342 
15399500    1884.1338   -728.18197    298391.22    15.779247 
15400000    1933.4686   -697.23206    295220.11    15.453047 
15400500    2109.7322   -674.30728    300707.27    15.055525 
15401000    2102.2046   -620.65998    302344.37    14.770408 
15401500    2006.9307   -632.36313    291461.25    14.850991 
15402000    1797.4803   -675.57348    300550.47    15.248903 
15402500    2004.1774   -757.42346    287759.38    16.029784 
15403000    2153.7478   -686.08612    303049.35    15.393486 
15403500     1910.471   -682.55453    297294.26    15.328889 
15404000    2092.7568   -648.96091    291903.23    14.944322 
15404500    2123.9289   -706.16552    301992.65    15.076114 
15405000    1974.6566   -797.39904     291924.4    15.837399 
15405500    1752.6801    -792.8127    292992.52     15.58474 
15406000    1929.7222   -780.71182    301167.55    15.584676 
15406500     1880.135   -777.45105     301750.4    15.581289 
15407000    1900.8265   -780.65263    302099.16     15.64977 
15407500    2079.5687   -652.56623    287580.09    14.561965 
15408000    1955.2775   -650.89264    288702.47    14.553406 
15408500    2031.8661   -623.08526    308514.78    14.514301 
15409000    2021.2972   -762.55012    299147.86    15.326357 
15409500    1869.2403    -724.8825    297761.99    15.218421 
15410000     2102.445   -683.08218    306300.31    14.814984 
15410500    2117.5307   -701.31247    296541.48    14.868327 
15411000    1852.9533    -688.0803    292269.85    14.877557 
15411500    1990.7257   -731.31647    304274.91    15.079145 
15412000    2049.1913   -736.75535    301982.82    15.175997 
15412500    1949.1728   -782.14812    305705.32    15.650274 
15413000    1938.2441    -799.3294    293614.35    15.833522 
15413500    1893.7079   -773.82008    290974.84    15.605252 
15414000    2142.4068   -704.74615    300515.47    15.200671 
15414500    1973.3038   -729.84496    307725.06    15.470903 
15415000    2013.2246   -767.26204    293594.89    15.857547 
15415500    1885.4237   -757.31631    299703.96    15.711509 
15416000    2007.9178   -761.67024    302603.02    15.722972 
15416500    1873.4753    -764.6241    290001.74    15.892115 
15417000    2071.6216   -769.41571    295301.88    15.821966 
15417500    2014.8107   -754.02168    304767.02    15.690479 
15418000    2042.1471    -731.5032    303538.31    15.638056 
15418500    2238.6023   -651.98848    302621.95    15.078889 
15419000    2005.4135   -650.02105    295661.23    15.130629 
15419500    1934.1667   -616.74983    309098.55    14.828852 
15420000    1967.3231   -730.20339    287789.35    15.568468 
15420500    1942.8332   -767.16382    281545.27    15.933472 
15421000    1997.7449   -679.67885    302780.22    15.249548 
15421500    2134.6405   -681.51082    310644.89    15.186199 
15422000    1962.5542   -699.81882    293854.72    15.335583 
15422500    2160.1391   -732.10226    303729.55    15.523539 
15423000     2086.319   -680.26615    307727.77    15.025212 
15423500    2112.9658   -650.36755    296028.17    14.877969 
15424000    2056.5764   -643.82951    300699.17    14.877391 
15424500    1875.2093   -664.07626     297538.7    15.043462 
15425000    2159.5685   -700.46391    297508.17     15.37394 
15425500    2164.0445    -734.2816    296763.08    15.684695 
15426000    1789.0109   -724.61652    299713.35    15.459593 
15426500    2018.4733     -761.647    297836.23    15.534473 
15427000    2116.9319   -705.18917    303936.11    15.030658 
15427500    2032.1666   -764.40259    292714.68    15.573359 
15428000    2076.7574    -720.1125    298566.82    15.079921 
15428500     2070.313   -746.45762    303936.54     15.39924 
15429000    2004.6647   -751.88044    302420.01    15.417709 
15429500    2035.7095   -716.26576    295089.46    15.166012 
15430000    1923.9105   -738.50312    297914.95    15.282831 
15430500    1973.5834    -738.4769    299713.67    15.297866 
15431000    1986.8704   -654.13615    302972.03    14.791098 
15431500    2054.9762   -756.10001    301595.36    15.309821 
15432000     1857.362   -729.85263    303900.88    15.098607 
15432500    2085.3076   -750.57402    307673.45    15.107409 
15433000    2075.8278    -753.5173    300417.21     15.13041 
15433500    1909.0317   -686.04471    305281.34    14.717807 
15434000    1883.0974   -751.28776    302613.47    15.339976 
15434500    1887.4632   -788.85711    305817.44    15.692651 
15435000    2101.8587   -790.55672    291688.06    15.809216 
15435500    2053.8004   -787.13683    309667.58    15.806463 
15436000    2224.0005   -787.42669    317959.47    15.830898 
15436500    2003.4417   -784.71492    296670.83    15.811933 
15437000    2049.3234   -765.14295    312263.29    15.782167 
15437500    2106.9304   -757.13075    288463.93    15.615765 
15438000    1858.9556   -742.34766    304361.21    15.637388 
15438500    1936.6535   -753.90359     305100.9    15.719547 
15439000    1966.2316   -719.00093     295713.5    15.561704 
15439500    1994.8717   -762.33353    302624.19    15.809116 
15440000    2045.5816   -746.72182    303279.61    15.814374 
15440500    2006.3978   -740.72158    302864.96    15.812241 
15441000    2039.5965   -759.77842    294670.59    15.910608 
15441500    2164.3204   -755.68461    301519.98    15.818545 
15442000    2012.2506   -757.61704    302666.36    15.662905 
15442500    2046.3523   -767.70145    293905.01    15.847218 
15443000    1807.8657   -756.86004    300800.46    15.809278 
15443500    1977.8502   -723.18033    302969.36    15.390519 
15444000    2042.0433   -697.69233    298985.75    15.165994 
15444500    1997.1964   -628.65913    302443.34    14.742551 
15445000     2032.927    -748.2948    304177.22    15.527014 
15445500    1925.4299   -765.35404    301055.36    15.684789 
15446000    2135.2235   -716.26747    298087.85    15.199009 
15446500     1884.668   -743.33492    296217.05    15.376341 
15447000    2057.7161   -692.13893     301316.9    14.965258 
15447500    2170.2187   -738.50831     302345.9    15.258396 
15448000    2023.9654   -722.09601    302998.11    15.224038 
15448500     1933.004   -730.33535    298423.73    15.407429 
15449000    1951.5713   -707.52341    289034.92    15.157744 
15449500    2047.0967   -610.28979    304496.19    14.686259 
15450000    2117.0921   -673.35494    296464.24    15.030432 
15450500    2136.5588   -719.88381    299676.98    15.350069 
15451000    1926.5054   -763.85377    299659.45    15.816235 
15451500     2128.076   -766.36961    298255.65    15.765536 
15452000    1788.5616   -764.54628    295205.85    15.592323 
15452500    1998.7595   -740.62933    303178.79     15.34275 
15453000    1937.5218   -740.54168    304306.96    15.333885 
15453500    2084.4242   -735.51774    307015.84     15.25319 
15454000    2028.9789   -738.35956    299453.28    15.269659 
15454500    1935.0713   -753.37899    298145.02    15.387511 
15455000    1892.8295   -750.13311    285248.12    15.381271 
15455500    2140.3113    -743.1318    300944.13    15.384514 
15456000    2027.1648   -758.36915    297433.69    15.647886 
15456500    2014.6935   -746.66735    302060.97    15.483823 
15457000    2035.8224   -771.14462    295894.97    15.770879 
15457500     1803.769   -712.11846     298935.8    15.288241 
15458000    1979.1379   -756.07561    299841.56    15.695331 
15458500    2073.6676   -735.94536    301038.23    15.328464 
15459000    2027.6225   -723.85057    297682.06    15.369222 
15459500    2016.7739   -750.83321    297620.71    15.438243 
15460000    1755.0344   -736.61658    293946.52    15.398365 
15460500    1898.9231   -747.54053    298122.06    15.451486 
15461000    2029.4813   -714.85082    304565.72    15.344598 
15461500     1879.162   -753.81386    300091.97    15.704185 
15462000    1833.3191   -666.60189    293916.75    14.948942 
15462500    1960.1304   -622.84101    295937.04    14.674222 
15463000    1993.8389   -625.79962    287327.09     14.78846 
15463500    2067.7978   -636.95146    292083.91    14.729932 
15464000     2072.348   -752.65446    298127.73     15.49991 
15464500    1896.1259   -731.58547    298263.47    15.377918 
15465000    1883.8102   -740.89798    297593.32    15.588159 
15465500    1966.6264   -748.40556    300092.07     15.82764 
15466000    1754.0524   -704.41625    297783.24     15.67944 
15466500    1970.0095   -681.65821    298714.32    15.405877 
15467000     1924.329   -602.39469    309954.84    14.831897 
15467500    1883.3117   -691.47755    297729.44    15.393552 
15468000    2171.2472   -685.34877    297892.88    15.397984 
15468500    1967.5257   -697.35563    297266.87    15.486375 
15469000    2033.2739   -683.85274    300453.64    15.316166 
15469500    2055.7699   -689.36138    303614.75     15.17523 
15470000    2122.1853   -706.07284    299215.05    15.329906 
15470500      1908.24   -702.29854    284064.56     15.39866 
15471000    1995.3485   -694.32251    303215.61    15.441697 
15471500    2117.2049   -678.10519    302583.58     15.29492 
15472000    2053.9609   -665.06203    301779.45    15.162378 
15472500    1989.5294   -635.86032    300115.67    14.987398 
15473000    2094.8908   -643.64366    300482.89    15.144524 
15473500    2164.3282   -710.37753     300222.4    15.502633 
15474000    1815.7342   -683.05395    299951.26    15.326579 
15474500    1869.1437   -709.25631    293744.73    15.320606 
15475000    1897.4085   -693.67843    293247.22    15.409661 
15475500    2014.5952   -674.43397    303061.52    15.321283 
15476000    1897.6592   -744.63602    306245.18    15.716896 
15476500    2149.0806   -758.75965    302715.57    15.701778 
15477000    2077.5403   -713.42371     299961.8    15.512137 
15477500    1964.7389   -647.99046    298846.32    15.100772 
15478000    1872.7837   -640.04537    290650.51    14.947526 
15478500     1873.636   -632.75169    303676.29    14.807332 
15479000    1886.9948   -659.34312    296798.99    15.132725 
15479500    2027.1061   -633.35278    299203.59    14.979332 
15480000    1954.6506   -636.62835    301112.62    14.994028 
15480500    2093.2389    -618.4697    296492.75    15.008656 
15481000    1868.9092   -679.13502    296200.35    15.379243 
15481500    2067.5265   -675.08352    300861.98    15.258588 
15482000    2038.1056   -559.11725    293357.07    14.605542 
15482500    2200.0853   -638.75334    305184.41    15.067025 
15483000    2075.5217   -694.38416    302685.33    15.602787 
15483500     2056.563   -697.13717    302541.93    15.588987 
15484000    1979.9202   -636.16844    303957.53    15.053259 
15484500    1882.6803   -655.14623    297384.18    14.996243 
15485000    1987.1872   -624.13032    303454.92    14.827439 
15485500    1919.4622   -762.47967    296808.04    15.855141 
15486000    1964.2939    -762.6459    301182.14    15.857774 
15486500    2010.8195   -721.84197    302241.33    15.444799 
15487000    2052.9865   -628.19335    297297.44    14.797636 
15487500    1778.7034   -554.30237    300472.55    14.574947 
15488000    2199.9981   -571.99334    291880.98     14.61272 
15488500     1991.637   -569.73071    287669.55    14.581573 
15489000    1873.8774   -604.79876    301120.43    14.855539 
15489500    1977.4751   -599.37713    314948.89    14.917439 
15490000    1935.4308   -632.00362    301885.52    15.066576 
15490500    1956.0872   -684.21853    295116.17    15.436754 
15491000    1815.6961   -638.48918    300361.09    15.116708 
15491500    2116.0674   -762.42583    291377.81    15.773523 
15492000    2063.0546   -706.12722    298393.15    15.477637 
15492500    2008.4121    -603.1826    309695.22    14.953668 
15493000    1867.9717   -639.17416    297270.33    15.011848 
15493500    2043.4432   -654.15932    300270.41    14.992159 
15494000    2066.9275   -616.69026    301302.64    14.693505 
15494500    2146.9238   -665.42952    301312.54    15.110718 
15495000    1977.2789   -663.22318    292363.93    15.049597 
15495500    2088.5568   -672.35293    299922.14    14.872105 
15496000    1901.3357   -648.85142    293082.66    14.823508 
15496500    1991.8475   -596.61462    314729.99     14.46971 
15497000    1927.6525   -653.96517    298922.34    14.735633 
15497500    2104.2257   -668.50387    289583.16    14.843871 
15498000    2044.7687   -671.09332    296115.68    14.878973 
15498500    2091.8229   -656.40593    308458.82     14.79709 
15499000    2007.7372   -654.55348    287314.23    14.903192 
15499500    2126.8936   -626.59089    303611.09    14.700125 
15500000    1959.6976    -624.8147    304387.89      14.5984 
15500500    2105.0826   -652.98292    303141.72    14.760796 
15501000    2167.5537   -652.66952    304221.23     14.83415 
15501500    1969.1135   -605.81913    300279.48    14.637332 
15502000    2045.8056   -604.20731    290671.22    14.576131 
15502500     1993.497   -632.46851     298155.2     14.73325 
15503000    1856.2683   -645.67255     287282.5    14.891524 
15503500    1988.9742   -626.93405    295330.06    14.717873 
15504000    2074.1526   -655.88863    290429.84    14.986217 
15504500    2192.5219   -605.97737    303018.82    14.596459 
15505000    2201.5546   -684.82033    298664.95    15.074935 
15505500    2008.8624   -685.23485    299714.99    15.172348 
15506000    2096.0439   -660.09587    305738.56    14.959278 
15506500    2100.4946   -640.37876    295587.99    14.977409 
15507000    1941.7672   -638.60534    301264.72    15.055623 
15507500    1919.6979    -704.0735    301334.64    15.531238 
15508000    2076.5332   -669.49373    303247.51    15.227446 
15508500    2071.2808   -617.93318    305435.86    14.872367 
15509000    1944.6193    -700.8407    288503.32    15.603722 
15509500    2218.5643   -691.83465    302592.99    15.389598 
15510000    2022.0303   -692.18375    295287.25    15.418915 
15510500    2018.9259   -672.48471    304340.51    15.291043 
15511000    1977.7667    -753.8918    291360.49    15.777832 
15511500     1918.324   -746.92442    298433.67    15.747986 
15512000    2000.3798    -723.7913    299050.73     15.30915 
15512500     2157.721   -690.85217    307934.27    15.008347 
15513000    1794.0651   -771.78759    314262.33     15.81478 
15513500    1937.0938    -767.2858    305987.15    15.822709 
15514000    2015.1133   -761.26278     285038.3    15.837526 
15514500    2046.8184   -766.87259    295491.12    15.872556 
15515000    2100.5526   -742.39806    303312.89    15.633929 
15515500     1944.287   -643.33731    302361.57    15.070286 
15516000    1862.0252   -681.50407     299518.6    15.341108 
15516500     1956.558   -680.11743    307737.17    15.280085 
15517000    2096.2941   -706.31797    301560.88     15.49101 
15517500    1874.5189   -673.45878    300225.31    15.361052 
15518000    1911.2601   -715.13332    299260.35    15.524461 
15518500    1985.9634   -689.70821    301788.61    15.314545 
15519000    1953.0293     -680.049    304380.75    15.272599 
15519500    1965.1659   -686.53986    302496.18    15.350887 
15520000    1991.3347   -705.00599    299036.78    15.472754 
15520500    1867.4501   -698.51866    295977.58    15.490221 
15521000    1883.2115   -626.88904    306056.77    14.966406 
15521500    1990.9115   -699.35726    298578.17     15.48197 
15522000    1837.2999   -671.28197    299522.63    15.244315 
15522500     1979.997   -642.68844    298211.64    15.099774 
15523000    1937.2492   -654.74103    297433.08    15.095715 
15523500     2059.142   -657.02211    289334.12    14.982243 
15524000    1901.6578   -629.22508    304144.59    14.823221 
15524500    2284.0814   -718.90901    303957.26    15.335291 
15525000    1959.9157    -692.5648     301501.9    15.216161 
15525500    1895.0661   -713.67968    300042.73    15.062067 
15526000    1876.0004    -709.3522    299349.39    15.220742 
15526500    2077.1904   -706.33449    299217.32    15.136965 
15527000     1919.929   -769.12511    293600.71    15.578777 
15527500    1906.0866   -759.32299    300646.66    15.557843 
15528000    2011.2731   -747.02925       299791    15.546449 
15528500    2210.1429   -757.92327    302631.44    15.518235 
15529000    2124.2659   -774.02202    290564.39    15.691242 
15529500    2013.1294   -792.57625    285406.06    15.823982 
15530000    2132.6627   -750.51292    298710.85    15.291427 
15530500    2109.8255    -689.7171    298103.18    14.832821 
15531000    2046.0879   -780.54707    304329.43    15.403454 
15531500    1812.7341   -795.36143    304580.01    15.773702 
15532000    1910.8254    -783.9739    305770.73    15.795628 
15532500    1959.3557   -713.68043    298032.52    15.261383 
15533000    2077.3869   -724.07424     297799.2    15.195926 
15533500    2150.5709   -783.03872    321195.51    15.758508 
15534000    1992.3626   -786.85587    296932.92    15.711876 
15534500    2057.5716    -755.7455    295233.98    15.211718 
15535000    1946.0038   -743.40333    307631.17    15.103381 
15535500    2008.3655   -746.52821    303201.76    15.116567 
15536000    1890.2217   -719.01602    297117.19     15.15624 
15536500    1977.4518   -708.17079    307920.08     15.03146 
15537000    2008.8273   -671.90575    300031.91    14.845706 
15537500    2105.5756   -677.32982    297216.04    14.868911 
15538000    1970.9311   -665.07979     302754.5    14.796319 
15538500    1866.1459   -723.58713    297238.02    15.079617 
15539000    1957.2145   -719.09928    293285.66    15.105068 
15539500    1975.7481   -718.78682    301090.37     15.15215 
15540000    2198.6784   -727.26283    302124.51    15.217059 
15540500    2035.2369   -680.41437    301576.43    14.872688 
15541000    1936.6318   -672.34385    306559.32     14.78529 
15541500    1947.9656   -677.84415    298950.86    14.801408 
15542000    2092.0592   -717.93362    294970.73     15.12529 
15542500    1953.2768   -757.43496    290660.19    15.556396 
15543000    1913.7467   -743.73697     302903.3    15.706824 
15543500    1873.5435   -726.76496    303348.19    15.494965 
15544000    2153.4665   -688.98734    306955.99    15.231063 
15544500    2074.0451   -751.71243    305504.88    15.680744 
15545000    1920.5161   -758.68089    286476.95    15.889053 
15545500    1977.4172   -762.19713    306573.78    15.773903 
15546000     1822.009   -766.76107     306981.5    15.802944 
15546500    2020.2433   -747.08687    300840.44    15.490084 
15547000     2061.929   -741.46118    306702.15      15.4135 
15547500    2174.6371   -754.05673    304772.31    15.394446 
15548000    1874.0194   -761.70897    298963.62    15.562514 
15548500    2045.8276   -758.10115    286398.85    15.582264 
15549000    2201.4761   -790.81669    298348.05    15.675357 
15549500    1963.1589   -783.51551    289722.47     15.71489 
15550000     2058.898    -711.3416    298827.96    15.006775 
15550500    1889.8056   -732.43476    298439.77     15.11419 
15551000    1983.4668   -717.89313    306989.28    15.063772 
15551500    2079.0253   -711.19468    303833.04    15.130755 
15552000     2094.852   -803.89277    312548.13    15.837331 
15552500    1791.9607   -772.75945    302202.42    15.535107 
15553000     1868.718   -762.44052    294799.65    15.296772 
15553500    2012.4659   -763.59637    296572.45    15.295611 
15554000    1845.7927   -755.41797    294810.24    15.273245 
15554500    1942.8085   -749.95864    297403.18    15.203012 
15555000    2052.6445    -669.0909    308636.03    14.740072 
15555500    2122.8851   -663.29332     311975.5    14.737455 
15556000    1842.6369   -667.62435    302102.98     14.80377 
15556500    2035.0002   -670.97955    306451.43    14.755465 
15557000    2170.6251   -662.58524    305976.06    14.754286 
15557500    2146.4744   -666.53553    297079.54    14.832627 
15558000    2001.8629   -764.72239     296952.3    15.652509 
15558500    2052.4484   -753.54312    299864.68    15.558781 
15559000    2205.9896    -746.9648    304091.24    15.251436 
15559500    2068.5361   -659.39385    301788.56    14.685011 
15560000     2017.893   -746.53362    303164.29    15.296859 
15560500    1914.9732   -749.19609    297573.56    15.289974 
15561000    2030.0036   -728.29703    306924.63    15.051939 
15561500    2229.5587   -795.05173    310902.32    15.750322 
15562000    2002.7393   -681.85167    296564.04    14.811301 
15562500    2124.2515     -675.113    303857.86    14.794148 
15563000    1904.8697   -681.03716    294543.49    14.847435 
15563500    1888.7037   -713.89327    300442.85    15.103246 
15564000    1811.2586   -711.49586    303168.51    15.084183 
15564500    2026.4576   -691.89742    308193.41    15.082075 
15565000     1914.261   -727.46452     298054.1    15.144552 
15565500    2316.6773   -713.88575    303354.17    15.114268 
15566000     1970.743    -745.6192     297768.4    15.173987 
15566500    2045.5415    -736.8547    304777.05    15.078028 
15567000     2029.074   -741.71034    303059.53    15.170496 
15567500    1902.2452   -753.38748    296837.56    15.334044 
15568000    1944.3363   -720.17032    303510.33    15.068274 
15568500    1948.0002   -789.53691    301816.47     15.69432 
15569000    2019.9068    -796.0982    297489.01    15.529842 
15569500    1992.1884    -780.3304     303033.3    15.447617 
15570000    2101.9456   -742.87237     301137.5    15.315038 
15570500    1890.0939    -669.3201     292618.9    14.822419 
15571000      1845.76   -747.03627     295585.9    15.190528 
15571500    2213.8515   -792.08102    300078.79    15.538825 
15572000    2018.9426   -769.98351     304031.8    15.431508 
15572500    1924.7353   -803.10153    309266.28    15.834461 
15573000    1887.1931   -775.65522    300048.95    15.514919 
15573500     2072.545    -686.1824    305118.47    14.766558 
15574000    2062.1549   -714.59163    291782.67    14.859031 
15574500    1843.4105   -667.51666    311736.14    14.745482 
15575000    1928.6632   -715.50262     305827.7    15.094388 
15575500    1910.9561   -755.44648    303391.55    15.406121 
15576000    1931.2547   -756.33493    298472.63    15.534129 
15576500    2083.3023   -760.17127    289248.11    15.564497 
15577000    2090.5593   -779.65145    298008.73    15.678302 
15577500    2005.5351   -769.35076    306205.34    15.690636 
15578000    2110.7717    -706.3393    299090.06    14.992616 
15578500    1882.5733   -679.35599    299368.62    14.864793 
15579000     2042.589    -709.2202    293316.17    14.944531 
15579500    1916.4924    -700.1383     294219.8    14.866202 
15580000    1893.9688   -695.72927     300281.5    14.837789 
15580500    2043.9178   -710.56609     294312.6    14.877111 
15581000    2033.2481   -687.29436    301879.74     14.79934 
15581500    1819.4048   -702.91814    301141.22     15.10413 
15582000      2026.78   -770.30076    276697.39    15.629443 
15582500     1945.137     -677.828    314802.72    14.738688 
15583000    2004.5435   -709.43299    295897.16    14.863994 
15583500     2130.997   -680.77479    317736.46    14.746465 
15584000    2002.3302   -684.96923    305795.17    14.747957 
15584500    2035.8224   -797.53483    293230.62    15.679124 
15585000    1827.2244   -801.57267    301136.43    15.815948 
15585500    2118.2975   -754.39033    305380.03    15.399275 
15586000    2067.6764    -774.5574    298821.45     15.51216 
15586500    1883.1911   -804.32786     275653.2    15.876045 
15587000    2142.3515   -710.84289    305080.32    15.084113 
15587500    2055.8874   -754.33108     298330.3    15.434994 
15588000    2091.4686   -666.64945    299284.14    14.787595 
15588500    1811.7468    -678.1712    299236.74    14.800538 
15589000    1907.4814   -673.48261    305340.65    14.796204 
15589500    2023.9994   -775.46085    288496.98    15.655934 
15590000    1772.7208   -786.56493    299879.29    15.834357 
15590500    1981.4138   -792.06922    284768.89    15.853271 
15591000    1813.1256   -775.67548    318415.69    15.789135 
15591500    2037.8474   -780.33063    319699.86    15.815128 
15592000    1828.6085   -797.54729    282695.06    15.808838 
15592500    2188.6021   -741.27321    304073.62    15.436224 
15593000    2156.5041   -734.68273    301565.73    15.248367 
15593500    1960.3365   -729.71496    301240.28    15.180573 
15594000    2106.7943   -788.77634    300827.45    15.618178 
15594500    1857.7326   -657.15889    303559.11    14.729618 
15595000    1948.1853   -748.07842    293193.73     15.25157 
15595500    1962.3411   -670.21611    305691.91    14.761136 
15596000     2092.983   -660.14673    296172.36    14.838467 
15596500    1992.4219   -650.44467    316221.89     14.74679 
15597000    2000.4675    -709.6195    297350.67    14.961902 
15597500     1796.535   -695.87811    301858.81    14.853162 
15598000    2010.5401   -696.99467    293654.98    14.899824 
15598500    1877.1282   -690.13332     308355.6    14.767776 
15599000    1878.9487   -676.12468     302149.8    14.806602 
15599500    2156.4415   -612.37777    282472.96    14.556432 
15600000    1937.5527   -605.76168    286311.19    14.579287 
15600500    2070.2112    -625.8094    328461.21     14.51053 
15601000     1975.442   -770.80812    293463.62    15.443677 
15601500     1803.813   -749.87286    294007.06    15.279891 
15602000    2015.7605   -733.10255    306551.68    15.185516 
15602500    1848.9247   -771.45465    297005.26    15.611025 
15603000      1992.07   -730.78049     298533.3    15.301008 
15603500    1951.4269   -671.23914    293162.87    14.889904 
15604000    1943.3111   -695.02888    293483.73    14.880834 
15604500    1897.7966   -680.81611    296593.43    14.867168 
15605000    1958.7063   -682.71012    296094.82    14.893362 
15605500    2078.1134   -650.86067    312008.87    14.710031 
15606000    2043.5827   -767.19174    305682.94    15.465512 
15606500    2151.6415   -798.39708    302640.86    15.838802 
15607000    2090.1028   -785.73102    308316.31    15.799165 
15607500     1945.768   -767.32105    288368.18    15.571025 
15608000    1995.4586   -714.74539    299422.57    15.076088 
15608500    2119.1163   -702.62464    298643.41    15.039369 
15609000    1957.0962    -698.6432    298931.48    14.994449 
15609500    2050.2482   -595.77869    322473.49    14.520549 
15610000    1910.6085   -604.78079    285948.61     14.56551 
15610500    2108.2891   -661.24937     296013.6    14.641583 
15611000    1987.7173   -673.46441    295039.44    14.833508 
15611500    1881.8286   -733.33536     293055.8    15.249636 
15612000    2084.6819   -736.79485    298850.18     15.23023 
15612500    1944.6718   -725.28229    298919.99    14.996553 
15613000    1851.6068   -646.90717    292869.41    14.634316 
15613500    2070.0467   -598.05032    317166.99    14.528987 
15614000    2003.4038   -601.38542    335453.57    14.497805 
15614500    2447.7008   -742.88118    305932.35    15.313745 
15615000    2106.8698   -757.10172    303024.51    15.418552 
15615500    1905.5399    -723.1736    296007.43    15.118431 
15616000     2094.763   -685.36995    296579.18    14.881561 
15616500    1754.9829   -797.01308    255442.42    15.839298 
15617000    2060.5398   -751.53593    303590.09    15.421854 
15617500    2064.0657   -774.40417    304095.86    15.533969 
15618000    1905.1472   -751.97324    302530.72    15.569854 
15618500    2228.3387   -792.14844    300146.14    15.671632 
[...]
29848000    1879.4282   -620.70089    299671.74    14.851134 
29848500    1868.6385    -662.6424    296748.26    15.032534 
29849000    2015.9551   -630.42523    304195.18    14.760692 
29849500    1985.2189   -665.25405    306300.49    14.931261 
29850000     2044.276   -761.20848    292512.75    15.855213 
29850500    2213.6588   -765.06588    296247.48    15.822216 
29851000    2101.2113   -742.31873    301663.16    15.535192 
29851500    1960.8743   -768.97686    292883.33    15.955012 
29852000     2041.414   -755.22213    302418.85    15.923069 
29852500    2077.6127   -740.01987    300355.72    15.851501 
29853000    2035.5081   -715.20209    296590.17    15.825647 
29853500    2011.2227   -640.01409    301539.66    15.147635 
29854000    1987.5822   -645.65975    294994.85    15.121555 
29854500    2093.6421   -716.06949    298452.53    15.641778 
29855000    2336.9967   -679.65424     302665.5    15.278565 
29855500    1964.8882   -667.03372    295535.22    15.323381 
29856000    1862.8514   -627.75098    301493.19    14.884739 
29856500    1988.6319   -696.77729    298142.57    15.488388 
29857000    2041.0855   -652.75432    302018.97    15.276941 
29857500    2021.8965   -666.17987    300850.44    15.339334 
29858000    2077.1941   -727.84682    301453.94    15.645536 
29858500     1855.019   -736.94791    299324.05    15.861252 
29859000    1930.5204   -680.21152    304694.82    15.408273 
29859500    1905.6872   -670.79955    300888.98     15.46112 
29860000    2118.4878   -718.32648     305114.2    15.713799 
29860500    1967.5529   -752.78488    301005.48    15.873675 
29861000    1948.2817   -679.27551    302775.69    15.263375 
29861500    2156.9773   -621.21623    301504.41    14.967369 
29862000    2138.8079   -664.26002    297232.94    15.095985 
29862500    1931.8692   -644.05659    290168.56    14.993261 
29863000    2054.7948   -646.44269    297424.96     14.87789 
29863500    2055.0255   -597.19932     294387.7    14.671819 
29864000    1977.7291   -602.71288     296070.9    14.593904 
29864500      2031.43   -593.35578    293592.55    14.657777 
29865000    1977.7841   -625.81927    302798.53     14.69499 
29865500    1967.1863   -602.69117    287109.13    14.572324 
29866000    1924.6161   -603.64486    294213.44    14.557755 
29866500    2049.4736   -657.80597    301315.58    14.935304 
29867000    2082.4089   -686.09255     302738.8    15.079905 
29867500    2011.8857   -706.59703    299381.04    15.399798 
29868000    1870.3252   -698.37249    297120.85    15.320438 
29868500    2045.0521   -758.47355    293419.41    15.827914 
29869000    1953.9716   -718.28027    297448.13    15.363948 
29869500    2262.4864   -732.37674    299716.67     15.22727 
29870000    1910.5463   -767.39639    290597.77    15.552568 
29870500    1926.7001   -663.78654    296379.31    14.746142 
29871000    2101.5276   -659.60281     310602.2     14.74507 
29871500    1864.6827   -672.11322    304866.08    14.793572 
29872000    2094.8741   -719.50763    306254.41    15.071301 
29872500    2069.9393   -755.35318    298422.76    15.209836 
29873000    2027.9552   -719.92101    300136.55    15.023504 
29873500    1853.7138   -765.50261    295001.84    15.398147 
29874000    1838.7706   -675.89546    306097.69    14.760344 
29874500    2041.0198   -776.68823     295477.8    15.459281 
29875000    2163.6274   -750.27263    307486.07    15.130376 
29875500    1971.0495   -740.00629    308275.99    15.121051 
29876000    2043.5782   -749.94948    304031.79    15.175959 
29876500    1852.1427   -752.73811    293535.23    15.215216 
29877000    1942.7067   -752.34114    296812.27    15.259816 
29877500    2024.9336   -746.25481    303178.05    15.218952 
29878000    2069.9822   -774.09441     298167.8    15.301682 
29878500    2101.5163   -781.18872    305547.46    15.522733 
29879000    2149.6825   -791.36976    298337.72    15.627894 
29879500    2101.0723   -645.78349    308151.24    14.663216 
29880000    2012.6861   -751.81294    299458.09    15.357313 
29880500    1982.4737   -745.28098    299325.87    15.436616 
29881000     2067.428   -757.20194    297998.06    15.644052 
29881500     1947.537   -764.61284    302908.62    15.794977 
29882000     2120.208    -764.7567    307454.37    15.865805 
29882500    2087.1976   -764.31838    312847.86    15.759414 
29883000    2045.8353   -774.67864    311941.87    15.838365 
29883500    1966.8222   -774.78256    289544.75    15.877915 
29884000    2003.2901   -769.50024    304327.54    15.862064 
29884500    2015.1343   -777.81499    308522.34    15.856966 
29885000    1931.5972   -747.67998    302658.81    15.524126 
29885500    1998.0856   -747.42131    303883.15     15.55505 
29886000    1884.8152   -773.69048    268692.86    15.961073 
29886500    2022.6143   -757.91468    306063.96    15.787311 
29887000    1944.2212   -648.87071    297138.19    15.085172 
29887500    2173.5206   -638.07344    299415.33    14.975749 
29888000    2054.2209   -632.83676    290946.93    14.936833 
29888500    2219.4476   -637.56372    298143.22    14.903372 
29889000    2054.3379   -722.10079    297955.23    15.599154 
29889500    1941.7566    -651.2141    295357.02    15.155005 
29890000    1977.3044   -649.89711    297941.79    15.155792 
29890500    1883.4947   -748.64962    296181.03    15.647894 
29891000    1932.5128   -738.20429    304474.77    15.805166 
29891500    1994.7699   -767.22499    292443.62    15.874355 
29892000    1831.8705   -683.64921    299131.81     15.33684 
29892500    2209.0083    -709.9462    296887.22     15.59268 
29893000    1975.4484   -620.86176    305213.41    14.907233 
29893500    2004.6769   -629.78297    292518.09    14.873846 
29894000    1948.9925   -624.26199    293261.17    14.953944 
29894500    1869.3974   -718.39512     303399.3    15.672904 
29895000    2003.2023    -703.6761       297677    15.803769 
29895500    1950.7788   -719.31045    297549.92    15.822387 
29896000      2077.22   -715.45511    301028.34    15.689477 
29896500    2141.0144   -684.02688    306253.29    15.449442 
29897000    2102.9799   -635.07434    299820.64    15.041667 
29897500    1894.1207   -639.21691    300423.74    15.031874 
29898000    1962.1084   -738.91513    292226.28    15.922637 
29898500    1996.7727   -683.31483    296027.97    15.462907 
29899000    1874.0994   -654.05445    293217.06    15.168624 
29899500    1829.6055   -643.11642    293470.91    15.016066 
29900000    2037.4302    -709.0497    303873.77    15.424463 
29900500     2073.173   -668.60775    296689.33    15.207181 
29901000    2076.8931   -658.77576    298883.26    15.188573 
29901500     2087.968   -705.35114    300176.68    15.542395 
29902000    2082.7676   -716.46534    295191.16    15.855537 
29902500    1978.9716   -735.84797    298157.14    15.906022 
29903000    1997.2297   -659.47907    304687.31    15.277271 
29903500    2080.4952   -636.84839    300062.22    15.004498 
29904000     2080.647   -667.76237    300147.66    15.176324 
29904500    2083.1659   -644.39307    296040.18    15.063003 
29905000    1933.7176   -652.82201    299279.96    15.115919 
29905500    1863.3543   -737.97418    297174.49    15.746575 
29906000    1958.9127   -754.23357    301952.66    15.792779 
29906500    2122.0499   -687.86291    302159.06    15.232839 
29907000     2145.197    -737.9993    300701.58     15.74309 
29907500    1969.8611   -746.50793    300436.67    15.761892 
29908000    2144.8655   -756.69272    303111.12    15.840006 
29908500    2014.0002   -620.68006     302080.9    14.961851 
29909000    2147.9976   -662.83518     302828.7     15.21828 
29909500     1990.328   -692.92843    302766.08     15.33575 
29910000    1948.4726   -711.23239    307787.37    15.476123 
29910500    2064.8036   -754.12857    301011.49    15.857359 
29911000     1931.505   -747.83658    303970.23    15.791669 
29911500    2077.8153   -759.46211    298963.43     15.87768 
29912000    1961.4123    -684.1893    301443.86     15.44206 
29912500    2048.8525   -707.66764    301447.56    15.622916 
29913000    1748.2401   -715.95607     296499.5    15.616271 
29913500    1979.4521   -679.73377    292660.74    15.318363 
29914000    1906.3899   -653.15404    300474.94    15.207219 
29914500    1918.2417    -699.3205    297500.28    15.490211 
29915000    2071.2333   -744.63165    298934.18    15.716024 
29915500    2117.3648   -684.64053    303379.29    15.355697 
29916000    1928.1309   -696.94751     298127.2    15.439678 
29916500    2043.9351   -714.77896    301697.63    15.465757 
29917000    2008.9632   -690.62502    299530.95    15.311885 
29917500    1814.9154   -615.85292    301503.66    14.854517 
29918000    1790.6575   -655.96134     290038.9    15.163606 
29918500    1760.3079   -640.94691    299509.27    15.038366 
29919000    2060.7966    -702.3174    293267.68     15.51652 
29919500    1712.6575    -687.1639    290251.19    15.438431 
29920000    2063.0181   -678.76959    299967.65    15.358731 
29920500    2108.7811   -708.55915    299944.34    15.595861 
29921000    2010.6566   -617.62966     307596.2    14.920832 
29921500    2015.3361   -702.25893    296626.12      15.5518 
29922000    1942.7382     -626.939    307597.26    14.945314 
29922500    1888.8212   -666.10317    304829.49    15.139457 
29923000    1917.8294   -637.52722    300159.18    15.042916 
29923500    2184.3103   -719.67498    300416.52    15.644902 
29924000    1979.6091   -663.14615    306340.51    15.318365 
29924500    2035.5178   -738.97174    300405.22    15.702777 
29925000     1972.591   -754.61735    299016.98     15.83633 
29925500    1914.1241   -760.80368    302350.33    15.829262 
29926000    1902.5286   -774.64722    294666.05     15.75744 
29926500    2156.1801   -680.57526    292902.09    14.855445 
29927000    2023.7104   -739.13931    301327.17    15.142624 
29927500    1850.4971   -736.87216    298504.17    15.154353 
29928000    2123.4449   -754.14719    295017.65    15.227449 
29928500    1947.8695   -754.86006    298579.69    15.192168 
29929000    1915.6527   -784.42225    298541.53    15.687475 
29929500    2116.4469   -795.35752    294055.86    15.789365 
29930000     2008.088   -741.87396    298777.24    15.183558 
29930500     2024.856   -670.97595    294951.96     14.82543 
29931000    1808.5053   -668.68838    303812.39    14.838187 
29931500    2155.2645   -671.40871     301080.9    14.795105 
29932000     1997.097   -645.45243    319896.15     14.71374 
29932500     2024.039   -752.80305    295363.04    15.277185 
29933000    2003.2821   -676.91876    313372.42    14.728901 
29933500    1794.8842   -673.87589    305066.23    14.767635 
29934000    1856.1104   -642.36445    296923.59    14.606593 
29934500    2029.5499    -726.7311    295451.89    15.196225 
29935000    1851.2612   -760.24092    295975.16     15.46217 
29935500     1910.736   -775.22831    300259.44    15.597698 
29936000    1898.8971   -806.41154    307201.21    15.855628 
29936500    1953.2248   -718.93908    301498.78    15.062985 
29937000    1820.1917   -732.32243    297125.05    15.165362 
29937500    1857.8114   -725.94377    295105.87    15.191786 
29938000    2011.4634    -705.3281    288806.34    14.933897 
29938500    2167.1131   -748.07434    302310.14    15.260747 
29939000    1958.3714   -725.13135    303654.63    15.071731 
29939500    2159.8297   -717.10107    302941.76    15.140348 
29940000    1888.5292   -743.91621    300279.88     15.19531 
29940500    1973.1295    -720.0106    299724.35    15.054979 
29941000    2007.7772   -706.65794    311221.76    15.051566 
29941500     2080.139    -784.5228    298575.55    15.678001 
29942000         2110   -770.65961    302739.11    15.392054 
29942500     2033.625   -761.60186    294319.14    15.202015 
29943000    1965.5825   -761.88295    298208.48    15.270638 
29943500    1971.5941   -743.55906    299587.63    15.257172 
29944000    2133.9071   -775.05259    301546.77    15.558614 
29944500    1884.2369   -752.86579    302834.92    15.477613 
29945000    1907.8074   -747.92752    300859.92    15.168319 
29945500    2101.8964   -761.39518     297681.1    15.201171 
29946000    1910.3203   -716.35817    306367.69     15.04691 
29946500    2007.7487   -761.83342     288770.8    15.548799 
29947000     1916.816   -784.51389    306599.55    15.716356 
29947500    1895.6121   -718.44964    297023.98    15.082331 
29948000    1870.7563    -716.1774    297861.17    14.947647 
29948500    1869.8643   -712.22252    295600.29    15.007737 
29949000    2019.4187   -727.73653    295623.92    15.132662 
29949500    1922.6562   -646.43637    304002.29    14.631543 
29950000    2107.6904   -791.00525    306943.98    15.667439 
29950500    1928.0198   -760.72077    301838.69    15.369101 
29951000    1979.2261   -689.77857    298758.05    14.861659 
29951500    2078.4311   -721.94461    299409.17    15.119437 
29952000    1949.5595   -651.93095    307593.99    14.759402 
29952500    2170.1799    -661.8735    297987.71    14.829387 
29953000    2061.6352   -670.91949    289087.72    14.913954 
29953500     2018.018   -724.53217    295497.82    15.299383 
29954000    2274.0081   -791.56433    310679.68    15.758384 
29954500    1985.6479   -785.21669    300304.66    15.581956 
29955000     1848.724   -714.46612    302918.71    15.121601 
29955500     1760.998   -721.20208    298989.72    15.124749 
29956000    1947.6831   -706.01722    295727.35    14.901423 
29956500    2052.7029   -694.57075    293932.74    14.970452 
29957000    2027.4619   -680.74047    292434.61    14.946777 
29957500    1981.0671   -681.38963    297265.47    14.893873 
29958000    2182.0898   -781.48903    303259.38    15.623894 
29958500    2081.5673   -792.68914    306891.89    15.746618 
29959000    1906.8347   -788.77476     296667.6    15.835931 
29959500    2064.2896   -719.81809    295038.25     15.19835 
29960000    1770.7233   -695.40819    303635.75    15.253643 
29960500    2015.0628   -694.03041    300264.33    15.309503 
29961000    1956.1431   -663.62373     301588.7    15.109835 
29961500    2103.7807   -640.67131    297221.35    14.925657 
29962000    1965.1849   -642.43603    298709.57    15.010217 
29962500     2036.655   -713.77752    288447.39    15.666081 
29963000     1943.385   -623.48281    308189.39    14.936807 
29963500    1971.3941   -637.12575     296125.2    14.987106 
29964000    1996.8732   -654.07051    300482.89    15.039777 
29964500    2166.6217   -646.16867    301543.31    15.020692 
29965000    1988.0372   -647.04546    297848.44    15.061625 
29965500    1881.7794   -655.59264    300820.41    15.116392 
29966000    1973.1483   -666.14924    301613.61    15.177757 
29966500    1906.5057   -637.43136    293310.35    14.914717 
29967000    1952.3148   -627.91199    302479.55    14.824732 
29967500    1883.1352   -635.41825    296514.12    14.969467 
29968000    1957.3162   -632.28195    299692.75    14.923134 
29968500    2023.9684   -629.40213    301513.77    14.958671 
29969000    1792.8578   -697.67246    292714.38    15.489848 
29969500    2163.4628   -700.59002    301343.99    15.398441 
29970000    2017.9432   -596.72156    303498.23    14.695408 
29970500     1892.937   -626.97007     305073.9    14.950447 
29971000    2079.6788   -649.44505    299669.83    15.147061 
29971500    1934.7358   -685.73012    301037.93    15.328501 
29972000    2014.3543   -709.77918    295946.62    15.414539 
29972500    1845.5818   -711.43513    299009.94    15.503306 
29973000    2026.1171   -749.47263    305776.87    15.699157 
29973500    2125.0904   -763.29636       299272    15.813971 
29974000    1873.4303   -783.99532     302659.8    15.846296 
29974500    1959.2311   -789.48994     293712.9    15.760986 
29975000    1981.7585   -792.50839    288977.49    15.893917 
29975500    1848.8384   -788.67081    284420.16    15.754326 
29976000    2091.2744   -792.29424    310468.14    15.816126 
29976500    2048.4356   -773.40396    303875.83    15.520519 
29977000    1937.1759   -773.59823    305036.36    15.473467 
29977500    1974.6462   -730.54605    305943.76    15.067966 
29978000    2051.3148   -738.24776    302562.33    15.133983 
29978500    1929.0913   -773.68086    299062.85    15.578811 
29979000    2175.0057   -792.39221    304431.84    15.457408 
29979500     2027.994   -784.13518    301020.33    15.552788 
29980000    1863.7218   -809.80642    288836.66    15.896593 
29980500      2056.47   -780.59727     302036.2    15.614666 
29981000    1803.5723   -746.96817    306079.82    15.430435 
29981500    2016.4435   -775.34355    297888.44      15.6105 
29982000    2031.4937    -683.7672    303493.06     14.91079 
29982500    2044.6307   -728.01534    299167.55    15.194131 
29983000    1904.5053   -730.59453    296973.05    15.170976 
29983500    2152.3045     -745.259    305649.32    15.195746 
29984000    1989.5401   -736.91905    304991.23    15.091389 
29984500    2054.1771   -720.16146    300717.79    15.098511 
29985000    1777.5403   -743.13602    298052.66    15.251858 
29985500    1905.4825   -721.02159    297934.19    15.130851 
29986000    2068.1165   -762.09124    297682.81    15.423054 
29986500    2015.2158   -747.39145    296933.01    15.239969 
29987000      1864.88   -767.02707    298878.47    15.398027 
29987500    2054.8395   -787.17347    301245.49    15.469047 
29988000    1908.2552   -792.71339    300178.99    15.507197 
29988500    2022.4493   -786.23132    307640.58    15.501522 
29989000    2088.0831   -774.65312    304164.46    15.567038 
29989500    2148.2245   -758.97045    301709.79    15.524151 
29990000    2067.4264   -788.34744    300814.41    15.788362 
29990500     1838.148   -719.86588    296511.29    15.203167 
29991000    2075.6517   -670.92019    296910.74    14.860081 
29991500    1951.8139   -676.16883     299629.6    14.875438 
29992000    2012.8782   -749.49771    299050.65    15.232726 
29992500    2155.1363   -792.55712    291329.52    15.810788 
29993000     1967.712   -793.98944    285614.88    15.837023 
29993500     1940.975   -775.00008    299319.29    15.572145 
29994000    2112.8254   -758.44093     295539.1    15.291844 
29994500    2053.7967   -742.98909    307460.96    15.129347 
29995000    1875.5964   -764.36043    287882.08    15.224304 
29995500    2114.4534   -747.27078    306590.31    15.084808 
29996000    1994.3581   -766.45514    296243.74    15.478069 
29996500    1944.9845    -786.5682     298871.7    15.655027 
29997000    1871.8486   -794.23782     296823.5    15.746896 
29997500    1941.9279   -786.35476    305094.91    15.770835 
29998000    2039.1681    -709.6126    301808.14    15.059334 
29998500    2094.6671   -660.56836    305756.84    14.849243 
29999000    2282.5994    -656.2253    296589.29    14.860888 
29999500    2079.0799   -645.20423    310466.48    14.805243 
30000000     2167.286    -720.9607    295562.14    15.221683 
Loop time of 60365.4 on 6 procs for 15000500 steps with 256 atoms

Performance: 42.940 ns/day, 0.559 hours/ns, 248.495 timesteps/s
99.3% CPU use with 6 MPI tasks x no OpenMP threads

MPI task timing breakdown:
Section |  min time  |  avg time  |  max time  |%varavg| %total
---------------------------------------------------------------
Pair    | 3836.9     | 3964.8     | 4081.9     | 140.3 |  6.57
Neigh   | 110.19     | 111.84     | 115.22     |  15.7 |  0.19
Comm    | 922.27     | 1038.2     | 1171.8     | 282.9 |  1.72
Output  | 503.52     | 503.54     | 503.63     |   0.2 |  0.83
Modify  | 54688      | 54695      | 54705      |   2.5 | 90.61
Other   |            | 52.03      |            |       |  0.09

Nlocal:    42.6667 ave 48 max 39 min
Histogram: 2 0 0 2 0 0 0 1 0 1
Nghost:    1177.33 ave 1202 max 1129 min
Histogram: 1 1 0 0 0 0 0 0 1 3
Neighs:    3669 ave 4088 max 3310 min
Histogram: 1 1 1 0 1 0 0 0 0 2

Total # of neighbors = 22014
Ave neighs/atom = 85.9922
Neighbor list builds = 750668
Dangerous builds = 3

write_data	data.final
Total wall time: 16:46:11
