LAMMPS (8 Feb 2019)
Processor partition = 1
echo both

include         in.partitions
variable p_id world   0 1 2 3 4 5
include		in.temp
variable	temperature equal 2000.
variable	tempDamp equal 0.1 # approx 0.1 ps
include		in.pressure
variable	pressure equal 300000.
variable	pressureDamp equal 1.0
include 	in.seed
variable	seed world 74581 93734 128321 21934 495716 871038
units		metal
read_restart    Restart.lmp.${p_id}
read_restart    Restart.lmp.1
  restoring atom style atomic from restart
  orthogonal box = (0.552883 0.552883 0.552883) to (15.6311 15.6311 15.6311)
  1 by 2 by 3 MPI processor grid
  pair style eam/alloy stores no restart info
  256 atoms
include 	in.setup
variable	out_freq equal 500
variable	out_freq2 equal 500

neigh_modify    delay 10 every 1
include		in.al
### Argon Potential Parameters ###
pair_style 	eam/alloy
pair_coeff 	* * Al99.eam.alloy Al

timestep	0.002 # According to Frenkel and Smit is 0.001

thermo          ${out_freq}
thermo          500
thermo_style 	custom step temp pe press lx


restart 	${out_freq} Restart.lmp.${p_id} Restart2.lmp.${p_id}
restart 	500 Restart.lmp.${p_id} Restart2.lmp.${p_id}
restart 	500 Restart.lmp.1 Restart2.lmp.${p_id}
restart 	500 Restart.lmp.1 Restart2.lmp.1



timer 		timeout 23:50:00 every 1000
New timer settings: style=normal  mode=nosync  timeout=23:50:00

# NPT

include		in.dump
dump            myDump all atom ${out_freq2} dump.al.${p_id}
dump            myDump all atom 500 dump.al.${p_id}
dump            myDump all atom 500 dump.al.1
dump            myDcdDump all dcd ${out_freq2} out.${p_id}.dcd
dump            myDcdDump all dcd 500 out.${p_id}.dcd
dump            myDcdDump all dcd 500 out.1.dcd
dump_modify	myDump append yes
dump_modify     myDcdDump append yes



fix             1 all plumed plumedfile plumed.dat outfile plumed.out
fix             2 all nph iso ${pressure} ${pressure} ${pressureDamp}
fix             2 all nph iso 300000 ${pressure} ${pressureDamp}
fix             2 all nph iso 300000 300000 ${pressureDamp}
fix             2 all nph iso 300000 300000 1
Resetting global fix info from restart file:
  fix style: nph, fix ID: 2
fix             3 all temp/csvr ${temperature} ${temperature} ${tempDamp} ${seed}
fix             3 all temp/csvr 2000 ${temperature} ${tempDamp} ${seed}
fix             3 all temp/csvr 2000 2000 ${tempDamp} ${seed}
fix             3 all temp/csvr 2000 2000 0.1 ${seed}
fix             3 all temp/csvr 2000 2000 0.1 93734
fix             4 all momentum 10000 linear 1 1 1 angular

run             30000000 upto # 60 ns
All restart file global fix info was re-assigned
Neighbor list info ...
  update every 1 steps, delay 10 steps, check yes
  max neighbors/atom: 2000, page size: 100000
  master list distance cutoff = 8.28721
  ghost atom cutoff = 8.28721
  binsize = 4.1436, bins = 4 4 4
  1 neighbor lists, perpetual/occasional/extra = 1 0 0
  (1) pair eam/alloy, perpetual
      attributes: half, newton on
      pair build: half/bin/atomonly/newton
      stencil: half/bin/3d/newton
      bin: standard
Per MPI rank memory allocation (min/avg/max) = 4.003 | 4.067 | 4.38 Mbytes
Step Temp PotEng Press Lx 
14999500     1931.691   -710.84167    299804.69    15.078234 
15000000     2090.374   -730.06698    298474.01    15.172761 
15000500    1933.6681   -672.26811    297427.59    14.867253 
15001000    1932.3272   -666.02892     303046.1    14.762372 
15001500    2054.2582   -657.45921     311548.5    14.754022 
15002000     1994.059   -656.81692    302359.12    14.725242 
15002500    1944.0067   -727.55358    298547.03    15.150444 
15003000    2061.6267   -663.81622    305892.56    14.757689 
15003500     1988.087   -746.73693    305028.97    15.136707 
15004000    1992.5592   -733.16136    303247.31    15.079153 
15004500    1904.5298   -754.62388    299653.86    15.377879 
15005000     2031.591   -742.45605    299339.21    15.209686 
15005500    1919.3081   -718.04295    292595.48    15.130137 
15006000    2048.6483    -659.4678    302564.79      14.7535 
15006500    1900.9872   -732.30193     294101.8    15.141859 
15007000    2012.9519   -675.28796    302016.06    14.782175 
15007500    1786.0996   -680.48834    303122.06    14.792113 
15008000    2107.0584   -698.07488    295474.69    14.862925 
15008500    2213.5973   -724.68783    293166.85    15.230853 
15009000    2190.3482   -716.90906    299668.28    15.155744 
15009500     1947.298   -728.94578    297587.67    15.217289 
15010000     1957.882   -661.29368    309753.54    14.719314 
15010500    1919.0893   -765.11646     298475.6    15.400476 
15011000    2044.0684   -732.52005    302219.18     15.08637 
15011500    2004.8877   -785.46693    302906.92    15.456219 
15012000     1962.619    -780.7579    303351.02    15.565164 
15012500    2118.6277   -780.58946    300162.79    15.575882 
15013000     2105.683   -793.40381    301145.21    15.762405 
15013500    1957.3909   -783.17041    302796.22    15.754792 
15014000     2009.153   -703.08158    303302.04    15.037977 
15014500    2103.0089   -760.68527     298165.4    15.397738 
15015000    1796.6196   -789.71399    292806.29    15.734405 
15015500    2171.8398     -696.466    299740.38    14.830309 
15016000    1788.2012   -635.82015    305018.84    14.672878 
15016500    1946.4617   -728.83748    294512.38    15.184748 
15017000    1962.9737   -706.90285    298705.27    14.944987 
15017500    1872.4352   -686.33212    295807.31    14.865203 
15018000    2129.8358   -640.67957    304156.03    14.893096 
15018500    2002.8525   -653.49737    300685.82    15.130061 
15019000    2064.4936   -715.21698    296354.44    15.564387 
15019500     1918.027   -612.45374    308752.54    14.857656 
15020000    1810.4233   -700.12826    292853.39    15.461887 
15020500    2116.1484   -663.06615    302552.67    15.296242 
15021000    2117.3252   -628.57702    305329.42    15.022048 
15021500    2014.9763   -633.70666    301656.87    15.034551 
15022000    1954.7895    -691.8772    297267.61    15.468229 
15022500    2074.2071   -671.12957    301373.25    15.262277 
15023000    1928.5691   -667.22206    306005.04    15.234132 
15023500    1869.7429   -708.23438    297507.73    15.464949 
15024000    2114.1429     -687.862    298439.02    15.332347 
15024500    1988.8346   -675.86321     304471.1    15.311447 
15025000    2011.8704   -695.35519    293924.51    15.440291 
15025500    2003.5057    -686.5701    298049.39    15.373374 
15026000    1960.4972   -696.84167    299314.98    15.474857 
15026500    1877.6565   -702.24684     301459.6    15.409221 
15027000    2086.4499   -697.91053    300143.45    15.517219 
15027500    2073.3438   -604.57496    307695.38    14.902664 
15028000    1739.1137   -706.83261    291961.89    15.639266 
15028500    1935.9654   -641.05489    292705.76    15.021601 
15029000    2040.2177   -664.34566    300502.98    15.027667 
15029500    2048.7945   -712.25678    302974.59     15.34262 
15030000     1774.948   -749.08421    305161.62    15.609491 
15030500    2040.4771   -748.98069    291116.38    15.594436 
15031000    1950.6426   -741.16826    302916.45    15.407029 
15031500    1895.2136    -710.7019    299307.91    15.187413 
15032000    2042.5996   -653.45486    311958.18    14.770678 
15032500    1811.0592   -691.72915    292111.27    15.001867 
15033000    1951.5277   -681.07215     291332.8    14.919734 
15033500    2044.8462   -679.69811    304312.09    14.837023 
15034000    2027.5678   -718.17945    296928.32    15.006043 
15034500    2052.1571   -717.82086    301634.02    14.979246 
15035000    2063.7856   -704.71555    311268.37    14.882452 
15035500    1885.1034   -686.06503    290193.72    14.814295 
15036000    1817.7467   -638.25342    303783.87    14.653121 
15036500    1966.4694   -611.58802    295844.39    14.530432 
15037000    2085.4704   -609.75179    298147.43    14.508402 
15037500    1926.9084   -645.58578    314224.18    14.646539 
15038000     2051.651    -669.4224    308295.73    14.730096 
15038500    1932.8093   -727.45947    290567.74     15.08206 
15039000    1933.9707   -679.76874    304558.28    14.776389 
15039500    1906.1471   -697.09976    299670.34    14.904033 
15040000    2014.4673   -682.27697    305342.72    14.807805 
15040500    1911.2593   -695.68507    296518.33    14.858138 
15041000     2057.667   -691.22216     298790.2    14.841453 
15041500     2059.378   -694.36712    304632.33    14.829731 
15042000     1883.791   -689.76193    299835.83    14.811091 
15042500    2191.4996   -679.57264    305874.97    14.825948 
15043000    2066.1831    -730.4817    307452.46    15.111854 
15043500    1867.7883    -708.9777    295723.04    14.899155 
15044000    1892.5392   -702.61702    291350.49    14.901873 
15044500    2064.4727   -717.77066    288340.69    14.930251 
15045000    1938.6757   -700.06691    299865.27    14.849077 
15045500    1939.5827   -690.81796    302135.21    14.795847 
15046000     2024.368   -682.97068    309481.37    14.738134 
15046500    2001.9976     -679.398    316828.49    14.736456 
15047000    2094.8336   -691.36141    302854.74    14.829653 
15047500    1901.2344   -708.58476    289921.01    14.916797 
15048000    2083.0377   -705.06465     302351.6    14.854348 
15048500    2129.7703   -671.59995    308864.92    14.728833 
15049000     2228.957   -680.76044    301377.89     14.83163 
15049500    1928.0032   -681.49226    297985.56    14.763648 
15050000    2022.5497   -681.33071    315827.59    14.753978 
15050500    2028.6901   -670.87259    308449.09    14.736904 
15051000     2065.817   -674.52217    298382.32    14.731644 
15051500    1853.7364   -696.53938    308892.73    14.819678 
15052000    1961.9141   -701.16453    302199.97    14.853823 
15052500    2015.9077   -688.59773    313566.21    14.798507 
15053000    1968.5037   -683.84772    312570.36     14.72781 
15053500    2162.0442    -667.4225    308533.93    14.728944 
15054000    1963.3232   -650.41831    307460.47    14.667053 
15054500    1950.9634   -744.21462    301769.67     15.22645 
15055000    1983.9716   -743.32563    293695.85    15.224161 
15055500    1937.2154   -681.54832    304383.84    14.781633 
15056000    1948.8035    -690.5624    306042.02     14.81349 
15056500     1916.383   -670.72324    309246.01    14.728678 
15057000    2217.5274   -689.72173     305369.4    14.858582 
15057500    2129.9815    -686.5047    301430.97    14.823799 
15058000    1910.1237   -684.13727    304698.18    14.848833 
15058500    2082.6139   -674.37792    311340.43    14.737283 
15059000    2037.6547   -714.95028    282181.57    14.951636 
15059500    1880.7324   -718.56496    300029.59    15.067296 
15060000    2081.8155   -702.12278    304923.22    14.915395 
15060500    2047.3718    -691.8624    292408.64    14.854697 
15061000    1908.9634   -703.10049    306370.92    14.898204 
15061500    1887.2941   -695.29457    300974.13    14.859153 
15062000    1982.0593   -685.05657    312903.96    14.827539 
15062500    1902.4414   -695.06505    318547.35    14.810047 
15063000    1897.4448   -695.78724    302595.31    14.816052 
15063500    1994.7505   -710.08672    284437.22    15.035415 
15064000    1887.4679   -714.39528     290398.8    14.993506 
15064500    1959.7701    -686.2943    317990.27    14.810573 
15065000    1922.3873   -738.58285    298173.95    15.220251 
15065500     2046.546   -736.66228    306265.22    15.209052 
15066000    2063.8298    -698.7874    301129.88    14.965897 
15066500    1922.8462   -682.62503    287209.12    14.834569 
15067000    2084.3128   -742.39234    303244.52    15.287413 
15067500    1839.3491   -734.89523    301283.56    15.146256 
15068000    2174.7995   -736.87904    298678.56    15.221343 
15068500    2052.8923   -736.62546    307077.17    15.134317 
15069000    1923.6435   -733.38351    303851.46    15.203588 
15069500    1994.7191   -697.61211    299851.63    14.935988 
15070000     1963.707   -694.65209    310096.55    14.847157 
15070500    1886.9492   -747.97581    301096.55    15.286865 
15071000    2125.6357   -694.76894    307517.71    14.864801 
15071500    1985.2952   -711.30207    302972.84    14.988428 
15072000    2033.1674   -745.13495    283830.08     15.23242 
15072500    1921.9206     -692.295    298972.27    14.867016 
15073000    1959.7908   -709.05681    300249.71    14.987902 
15073500    2138.8138   -701.91604    294506.36    14.928891 
15074000    1865.8398   -697.67188    310863.82    14.876188 
15074500    1906.3551   -696.21561    304712.08    14.872226 
15075000    1948.1846   -708.01107    303098.75    14.933437 
15075500    2226.0038   -698.31211    309323.97    14.892302 
15076000    2115.8649   -689.37044    300895.56    14.950895 
15076500    2126.7494   -699.88678    295601.04    14.883356 
15077000    1839.5086   -673.82255    312040.62    14.724714 
15077500    2196.8881   -685.22531    319633.11    14.766763 
15078000    2208.5576   -706.59883    297987.97    14.955718 
15078500    2000.6557   -700.66228    292196.63    14.876368 
15079000    1989.6728   -725.81696    305096.42    15.122151 
15079500    1938.6248   -727.28548    303486.04    15.134294 
15080000    2020.8069   -728.78375     300413.7    15.176397 
15080500    2056.3108   -703.37981    294639.13     14.96351 
15081000    1844.3547   -667.99014    301821.36    14.829838 
15081500    1993.1961   -742.59193    296587.78     15.26523 
15082000     2109.224   -733.14391    307087.27    15.215567 
15082500    1842.2907   -707.91281    286720.67    14.988167 
15083000    2039.3879   -741.09824     299997.5    15.201926 
15083500    2149.2877   -691.32703    301056.08    14.928911 
15084000    2095.2042   -745.90567    297797.15    15.285618 
15084500    1871.1797   -727.21687    295411.68    15.145694 
15085000    1945.6761   -673.53455    301191.89     14.79531 
15085500    2136.2179   -683.14856    296604.38    14.836005 
15086000    1857.3083   -703.60736    302174.69    14.910321 
15086500    1970.3917   -696.21612    290000.92    14.888626 
15087000     1876.042   -690.70104    302451.28    14.801329 
15087500    1773.0719   -679.29887    311229.31    14.737089 
15088000    1990.2612   -691.48892    289605.21    14.841857 
15088500    1975.0044   -710.96481    298699.62    14.976284 
15089000    1941.5475   -740.82611    305949.59    15.172711 
15089500    1913.9186   -657.42438    314417.71    14.625097 
15090000    2025.9052    -675.6241    307731.48    14.865011 
15090500    2224.6055   -684.24313    303757.02    14.969257 
15091000    2106.5215   -675.06037    305373.54    14.924146 
15091500    2030.8563   -670.95624    298345.17    14.898138 
15092000    2111.7437   -671.84751    307574.08    14.853882 
15092500    1795.3647   -682.30519    290513.41    14.990656 
15093000    2035.4111   -723.66081    299388.55    15.193098 
15093500    1823.3984   -762.08591    297013.83    15.729291 
15094000    2032.2318   -707.60271    301280.72    15.218349 
15094500    2145.0027   -638.21833    301017.88    14.806883 
15095000    1826.4294   -736.98184    295451.96    15.431033 
15095500    1892.0945   -769.38384    300719.69     15.78486 
15096000    1933.6479   -767.18946    300558.15    15.686842 
15096500    2221.6586    -720.0373    311505.73    15.217474 
15097000    1876.4655   -664.40201    309032.19    14.857983 
15097500    1894.9544   -688.48344    300945.47    14.936594 
15098000    1958.3701   -710.83559     300267.4     15.17314 
15098500    1993.8009   -743.93616    297646.81    15.417362 
15099000    2129.1705   -745.71003    302083.91    15.463872 
15099500    1995.8233   -768.13446    298373.38    15.651485 
15100000     2006.042   -767.85789    300587.21     15.67277 
15100500    1862.6965   -758.88911    300230.96     15.70227 
15101000    1938.5498   -735.18629    301912.83    15.363673 
15101500    1911.0753   -747.89784    304172.44    15.539807 
15102000      1984.49   -745.23597    298999.53    15.712937 
15102500    2104.4543   -775.79856    295077.32    15.841729 
15103000    2075.1108   -664.39413    308457.42    14.872108 
15103500    1991.9508   -697.27873    288765.32    15.086894 
15104000    1999.1675   -681.09448    306677.85    14.920641 
15104500    1959.6795   -665.04688    307869.57    14.835264 
15105000    1969.8341    -650.9062    307184.64    14.760051 
15105500    2119.9131   -658.29356    300436.59    14.779449 
15106000    1982.4957    -649.2007    292474.74     14.73091 
15106500    2009.1775   -703.42888    301083.58    15.050524 
15107000    1814.8435   -683.87885    278493.86    14.922073 
15107500    2051.1089   -671.08811    286588.33    14.889039 
15108000    1834.9402   -665.57149    294796.33    14.812836 
15108500    2065.6654   -626.12122    301047.84    14.654468 
15109000    1828.8872   -625.77956    303383.65    14.564268 
15109500    1916.0372   -647.04195       290354    14.724872 
15110000    1908.4857   -626.64116    308074.71    14.686094 
15110500    2017.1544   -632.88917    303089.96    14.601864 
15111000    1938.3287   -609.00884    309269.64    14.550916 
15111500    1906.3171   -635.41165    301415.46    14.672974 
15112000    2028.0155   -600.35106    299188.16     14.54179 
15112500    2209.2083   -641.02197    307198.41    14.832405 
15113000    1939.4554   -641.57819    302747.89    14.773112 
15113500    2044.3679   -622.37763    302031.21    14.662858 
15114000    1947.8238   -665.75007    299195.38    14.913697 
15114500    1953.0038   -579.85946    329906.57    14.469161 
15115000    1915.6293   -638.13907    295798.25    14.712803 
15115500    2054.2386   -598.97944    303271.72    14.571552 
15116000    2051.8429   -612.35261    305472.22    14.578306 
15116500    2047.7354   -606.44531    302140.14    14.548166 
15117000    1894.0182   -703.44565     295283.8    15.107077 
15117500    2151.7806   -755.68406    302668.07    15.563241 
15118000    1927.7637   -749.28209    305448.55     15.50632 
15118500    2018.3673   -761.07714    299226.97    15.596805 
15119000    1859.3639   -714.57309    304502.62     15.21586 
15119500    2014.7758   -742.97116    299109.26    15.396703 
15120000    2176.8236   -649.11191    306124.45    14.807074 
15120500    2103.0863   -636.35083    300039.62    14.762026 
15121000    1995.0252   -659.58502    308539.93    14.816002 
15121500     2047.762   -660.33395    299494.64    14.822308 
15122000    2071.8536   -609.17672    306997.35    14.563684 
15122500    1957.5911   -596.98029    292142.64    14.597535 
15123000    1932.3513   -596.78447    306255.42    14.533344 
15123500    1946.4864   -615.79348    289649.44    14.515654 
15124000    2212.3746   -714.03126    299610.96    15.071954 
15124500    1902.4279   -706.38646    297664.03    14.948622 
15125000    2118.6108   -724.63006    293947.22    15.066339 
15125500    1974.4715   -713.35561    302759.79    14.996243 
15126000    2231.6285    -714.3041     302939.7    15.010261 
15126500     1994.203   -692.11928    300398.69    14.829804 
15127000    2089.0812   -703.70146    299229.64    14.902564 
15127500    2011.4859   -724.92289    298874.43     15.09219 
15128000    1929.6837   -661.10499    294652.01    14.728248 
15128500    1847.1067   -667.30719    311619.79    14.724856 
15129000    2097.1315    -671.6608    304419.41    14.737204 
15129500    1968.2846   -704.44399    292172.14    14.902724 
15130000    2106.8998   -695.22053    304624.75    14.892381 
15130500      2212.07   -660.02673       290124    14.725004 
15131000    1932.9855    -656.2778    313075.61    14.640676 
15131500    1992.4491   -656.10904    329688.31    14.637069 
15132000    2008.3955   -662.79073    312546.12    14.693655 
15132500    2037.9203   -685.94331    306656.92     14.81258 
15133000    2019.8094    -700.2261    300204.82    14.850641 
15133500    2025.7162   -679.07389    308423.95    14.770293 
15134000    1893.4841   -694.68774    305111.07    14.880195 
15134500    1956.2306   -723.47607    290505.02    15.037051 
15135000    1982.0467   -696.60416    291258.59     14.87222 
15135500    1948.4459    -693.7867    310698.68    14.815933 
15136000    2039.3089   -671.08212    303391.56    14.736727 
15136500    2109.5609   -715.74031     286023.3    14.989521 
15137000     1914.578   -706.71331    278759.53    14.917275 
15137500     2118.842   -712.38008    287424.49     14.95038 
15138000    2097.2368   -690.74618    295121.81    14.813096 
15138500    2126.9467    -700.3513    293146.51    14.862659 
15139000     1894.417   -719.14121    287603.23    14.988431 
15139500     2003.484   -730.03085    295731.52    15.139755 
15140000    2143.5348   -665.54644    317743.44    14.684507 
15140500    2017.0245   -696.95778    305870.24    14.891979 
15141000    2020.7119   -699.02178    294275.39    14.892261 
15141500    2173.9371   -731.85902    298500.91    15.145528 
15142000    1967.5754   -744.49154    298851.67    15.211194 
15142500    2011.6186   -742.96002     300330.7    15.235751 
15143000    2068.9194   -718.89064    303055.54    15.002239 
15143500    1948.6373   -703.44134     310983.4    14.876707 
15144000    2046.2817   -696.48723    304839.67    14.853169 
15144500    2122.9471    -698.7698    300818.73    14.925732 
15145000    1857.2661   -730.06482    296274.51    15.116769 
15145500    1978.4642   -717.84726    300372.47    15.050363 
15146000    1901.8861   -707.13299    288397.94     14.96105 
15146500     1991.858   -704.45491     302449.4    14.902245 
15147000    1778.6042   -686.94237    306936.93    14.849146 
15147500    1939.9594   -682.98926    316641.19    14.751203 
15148000    1916.6697   -695.47233    314656.28    14.796968 
15148500    2005.1426   -690.37931    296814.08    14.814641 
15149000    1879.2036   -692.31551    302651.54    14.844853 
15149500    2182.0381   -670.18333    293280.03    14.751779 
15150000    2065.7932   -698.67358    294580.86    14.865899 
15150500    1967.8238   -715.97143     295766.1    15.020471 
15151000    1996.4379   -691.65362    294547.86    14.848141 
15151500    2043.8445   -718.21181    289358.79    14.970648 
15152000    2026.7417   -718.47151    284916.06    14.971871 
15152500    2038.9879    -705.6012    277096.17    14.921043 
15153000    1967.7364    -681.7051    307801.67    14.772657 
15153500    1940.0635   -651.53537    295369.57    14.625745 
15154000    1882.0932   -736.40935     306538.8    15.178731 
15154500    1909.3832   -668.20696    295824.83    14.751102 
15155000     1861.601   -686.32321    300434.06    14.842111 
15155500    1976.1407   -667.33775    303904.76    14.776908 
15156000    1936.9441   -659.35867    288665.05    14.736546 
15156500    1911.6205   -679.97328    296102.62    14.808464 
15157000    2044.8598   -658.33184    308650.41    14.713045 
15157500     1956.589   -712.68838    297189.21    14.978294 
15158000    1983.6469   -744.90487    290672.77    15.236008 
15158500    2048.4156    -700.9105    292111.74    14.964352 
15159000    1933.2335   -729.10263    301913.31    15.085339 
15159500    1942.1215   -691.04614    311423.76    14.855803 
15160000    2037.6517   -733.48435    291017.96    15.167734 
15160500    2053.9794   -684.31751    278963.61    14.815213 
15161000    1990.9721   -705.39997     300174.5    14.974277 
15161500    1981.5586    -645.1896    309759.22    14.664072 
15162000    1970.6996   -712.62068     297555.4    15.074205 
15162500    1955.3021   -674.84794    288259.79    14.756788 
15163000    1857.4185    -679.9378    297472.49    14.821129 
15163500     2010.832   -698.92302    303080.22    14.891689 
15164000    1961.6205   -709.10088    299449.46    15.006301 
15164500    1825.3873    -698.3261    301199.48    14.915945 
15165000    1936.8892   -711.79109    307918.52    14.965786 
15165500    2111.3585   -702.22849    304575.24    14.894678 
15166000    2054.2502   -682.07128    288801.12    14.817319 
15166500    2099.7706   -678.28739    298963.97    14.801597 
15167000    1983.9266   -735.54154     300981.9    15.246881 
15167500    1996.3821   -723.88233    289590.15     15.10048 
15168000    2090.7037   -689.85132    289150.33    14.848684 
15168500    2119.8468   -705.03973    300262.44    14.924997 
15169000    1990.9943   -667.70119    298605.41    14.758332 
15169500     1800.807    -651.4594    284410.17    14.749937 
15170000    1844.6945   -657.81076    297639.83    14.699982 
15170500    2038.8843   -725.72803    300605.49    15.112253 
15171000    2074.1796   -691.92778    301128.35    14.882446 
15171500    2084.1628   -671.65487     302921.4    14.804159 
15172000    1919.9792   -620.50275    300604.16    14.538611 
15172500    1970.6257   -613.41165     287433.2    14.545141 
15173000    1987.9868    -608.6991    280554.54    14.538566 
15173500    1972.2726   -709.33186    287623.81     15.00629 
15174000    2035.2119   -678.27231    297886.33    14.758374 
15174500    1989.5653   -682.00067    282608.81    14.812066 
15175000    1978.0884   -705.16177    296649.96     14.96972 
15175500    2013.2742   -664.34842    305975.36     14.71438 
15176000    2126.3743   -697.66567    293740.18    14.941795 
15176500    2063.9532   -646.94449    303517.43    14.647382 
15177000    1975.7029   -690.87394    290833.97    14.876646 
15177500       1948.8     -686.445    312075.93    14.801401 
15178000    1995.0175    -708.3691    295665.84    14.938453 
15178500     2071.176   -686.85841    307287.87    14.817516 
15179000    1914.1922   -708.90491    298160.47    14.915332 
15179500    1995.4395   -668.86703    304194.17    14.728711 
15180000    1886.0085   -695.28034    298534.34    14.887228 
15180500     1872.306   -623.14095    297496.26    14.491966 
15181000    2030.8879   -694.33595    291465.97    14.910531 
15181500    2126.3581   -695.44397    302212.09    14.872043 
15182000    2046.0495   -697.75289    306677.81    14.878573 
15182500    2059.9313   -736.19796    308415.47    15.202833 
15183000     2099.191   -729.24799    302999.23    15.146742 
15183500    2137.7755    -691.5017    294838.34    14.879025 
15184000    2002.2422    -676.3247    285133.14    14.796466 
15184500    1941.9067   -662.94068    298090.28    14.752328 
15185000    1921.0795   -693.81616    300479.51    14.935272 
15185500    2158.3843   -684.37776    311232.05    14.824486 
15186000    1919.4905   -659.71337    284717.69    14.733841 
15186500    2004.0871   -666.19558    303410.08    14.766982 
15187000    1931.6036   -603.18561    308668.05    14.481771 
15187500     1885.058   -620.61199    271995.23    14.524332 
15188000    2082.0435   -611.90138    304908.44    14.505915 
15188500    2103.2221   -609.68826    305417.81    14.513154 
15189000    1883.8987    -599.6716    294630.86    14.604234 
15189500    2108.6081   -606.13932     313077.8    14.483142 
15190000    2129.7269   -600.14196    289159.98    14.525657 
15190500    1914.6217   -606.27194    277995.85    14.567368 
15191000    1948.2875   -617.29781    291571.92    14.529522 
15191500    1974.5196    -623.7274     289862.2     14.49838 
15192000     1805.937    -608.7779    291201.11    14.514234 
15192500    1975.6503   -597.54483    339969.71    14.476043 
15193000    1987.2733   -673.87589    284649.82    14.851548 
15193500    2024.3561   -707.70811    303517.84    15.009737 
15194000     2100.395   -740.76028    309936.98    15.294356 
15194500    2205.6132   -751.60167    305067.36    15.384917 
15195000    2096.2988   -713.30829    303160.37     15.07354 
15195500    2072.0087   -696.46988    304898.56     15.10328 
15196000    2056.8307   -768.67753    304690.84    15.753825 
15196500    1933.2859   -750.12096    300274.24    15.614735 
15197000    2096.5349    -754.9695     298074.4     15.66775 
15197500    1914.1696   -711.51761     302795.3    15.153156 
15198000    1886.4323   -726.35591    297216.35    15.169149 
15198500    2118.2895   -717.43237    299498.59    15.116273 
15199000    1912.1648   -710.77041    301608.72    15.090134 
15199500    2133.7507   -749.33147    300727.97    15.308616 
15200000    1989.4513   -794.29958    288041.48    15.784532 
15200500    2062.6074   -776.21289    299203.63    15.396314 
15201000    1898.6716   -788.50715    296441.53    15.662011 
15201500    2219.9557   -735.15085    302925.18    15.204811 
15202000    2080.8741   -752.04526    299970.67    15.189437 
15202500    1984.3042    -753.6517    302620.91    15.106316 
15203000     2012.243   -743.81789    306947.94    15.108072 
15203500    2070.0028   -765.58713    296576.62     15.32105 
15204000     1847.035   -697.11669    298958.94    15.115932 
15204500    2190.8735   -790.42589    277727.74    15.877451 
15205000    2041.2626   -794.74266    305100.89    15.784975 
15205500    2015.1613   -785.44062    304118.18     15.65817 
15206000    2011.7176   -697.71474    299188.13    14.971301 
15206500    2142.1079   -663.27698    302414.52    14.853966 
15207000    1779.1983   -654.01102    293054.16    14.873016 
15207500    2073.3463   -675.80418    289063.12    14.861876 
15208000    1983.1828   -603.78058    318427.42    14.497945 
15208500     2178.377   -630.69859    300085.12    14.549235 
15209000    2059.9174   -668.30195    289646.81    14.833308 
15209500     2013.068   -783.36897    297297.72    15.561968 
15210000    2004.3004   -751.66199    300760.74    15.387964 
15210500    2127.4833   -779.39984    304911.17    15.628828 
15211000    2223.5296   -750.09391    301074.58    15.288179 
15211500    2126.0631   -754.41506    297843.29    15.186326 
15212000    1842.4727    -747.5735    297154.75     15.15981 
15212500    1760.0098   -758.38282    289948.87    15.215759 
15213000    1991.3623   -758.12448    294279.53    15.182756 
15213500    1863.4199   -762.22674    298606.94    15.412267 
15214000    1901.4539   -766.34402    293761.34    15.549154 
15214500    2067.7729   -687.59686    299174.38    14.839976 
15215000    1895.7061   -670.08134    302125.65    14.781474 
15215500    2207.2611    -756.5119    300967.32    15.242209 
15216000    2177.4329   -751.75137    301739.43    15.166143 
15216500    2224.1185    -759.8947    292856.21    15.183257 
15217000    2034.8258   -750.11321    301241.13    15.211638 
15217500    1989.7372    -738.3435    298960.39    15.149046 
15218000    1846.3696   -794.43198    298881.25     15.71836 
15218500    1964.7073   -738.26892    308696.69    15.107508 
15219000    1704.1893   -747.57733    300298.44    15.148867 
15219500    2061.7176   -770.49175    297791.92    15.332208 
15220000    1966.6934    -714.3257    303508.58    15.124913 
15220500    1827.6762   -677.17069    290707.84    14.950154 
15221000      1893.73   -721.46039    288770.98    15.188993 
15221500    2095.5116   -698.81106    304478.15    15.153835 
15222000    2054.1179   -687.18705    304350.52    15.146747 
15222500    1870.9574   -689.72742    301865.09    15.182258 
15223000    1989.5773   -698.28061     303780.9    15.205582 
15223500    2091.6029   -719.00902     299830.6    15.144339 
15224000    2053.8125    -762.8008    299141.02    15.341829 
15224500    1959.3366   -637.58659    309934.57    14.647028 
15225000    2100.9119   -764.66474    286006.03    15.551462 
15225500     1925.375   -764.19294    293593.93    15.582626 
15226000    2149.6709   -730.44262    308386.63     15.06174 
15226500    1975.3106   -736.44512    304636.31    15.116347 
15227000     1970.495   -710.47537    295141.44    15.013656 
15227500    1887.7487   -715.23623     298723.4    15.095169 
15228000    2119.6887   -738.25962     307609.9    15.376364 
15228500     1981.369    -700.2699    301518.99    15.022889 
15229000    2220.7877    -691.8261    303737.37    14.981623 
15229500    1976.0772   -677.44786    300207.86     14.85985 
15230000    1870.5609   -711.99649    294543.59    15.038281 
15230500    1980.5121   -769.19038    291423.08    15.518554 
15231000    2118.6476    -715.9862    293459.72    14.886242 
15231500    2040.7845   -710.29762    292720.48    14.950876 
15232000    1973.0257   -772.91329    303750.32    15.422002 
15232500    2036.0826   -777.25254    309819.31    15.465776 
15233000    2007.8675   -792.04422    305799.22     15.81144 
15233500    1857.8785   -788.33958    309505.69    15.712351 
15234000    2182.8783   -763.03419     301439.5    15.471437 
15234500    1890.2108    -758.4026    302130.85      15.4889 
15235000    1899.5752    -772.7943    298884.02    15.519964 
15235500    1908.3688   -743.80059    305453.07    15.449343 
15236000    2182.0417   -742.31689     303249.8    15.340217 
15236500    2026.0881   -688.47822     300286.1    14.915678 
15237000     2012.507   -738.49697    300167.68    15.349683 
15237500    2081.3853   -741.24149    280609.34     15.57678 
15238000    2239.4315   -770.47726    296172.56    15.529988 
15238500    1847.0704   -751.63256    300464.37    15.385051 
15239000    2065.3508   -752.00339    299818.45    15.509638 
15239500    1953.5729   -756.58349    293980.79    15.574448 
15240000     2073.723   -753.76582    300272.88    15.511724 
15240500    1966.3144   -682.96694    294225.22    14.827604 
15241000    2162.3962   -681.21737     299122.8    14.856856 
15241500    2058.6947   -710.55329    301559.28    15.067436 
15242000    2126.3542   -621.29925    297800.74    14.523422 
15242500    1969.2127   -728.17645    294930.54     15.12872 
15243000    1862.5538   -741.08741    301041.99     15.21519 
15243500    1889.4858   -736.30051    301155.11    15.203475 
15244000    1978.6715   -741.90559    308680.46    15.455735 
15244500    1950.1823   -649.83034    303472.24    14.768453 
15245000    1971.6455   -728.70655    294847.32    15.197574 
15245500    1971.8541   -653.77841    307537.06    14.745547 
15246000    2161.3837   -760.70894    297239.15     15.54657 
15246500    2126.0408   -737.02135    300416.32    15.341331 
15247000    2077.2933   -759.03809    299469.22     15.44276 
15247500    2013.6549   -754.17747    303398.33    15.464993 
15248000    2064.1116   -796.02059    284348.37    15.859442 
15248500    1929.7858   -794.57165    300269.57    15.790633 
15249000    2091.4005   -777.65151    298250.58    15.750037 
15249500    2014.1544    -741.9441    300949.48    15.259789 
15250000    1991.8664   -663.12798    310938.32    14.730149 
15250500    2047.7822   -723.25465    292620.29    15.126874 
15251000    2057.3346   -711.01638    297818.68    15.059176 
15251500    2025.9611   -744.90736    302240.68    15.414344 
15252000    1972.4607   -733.83053    302536.76    15.431411 
15252500     1896.965   -739.05688     298893.2    15.316442 
15253000    1806.3457   -661.93101    297925.14    14.712521 
15253500    1991.3954   -713.41919    289782.72    14.899646 
15254000    2060.9277   -695.18695     308635.6    14.792982 
15254500     2055.611   -699.47344    302433.32    14.843837 
15255000    1917.7876   -700.26497     295762.4    15.001176 
15255500    2040.5946   -679.55287    308302.72    14.797212 
15256000    1956.9925   -738.97329     298642.7    15.160427 
15256500    2058.7794   -718.15342    297746.69    14.955512 
15257000    1906.1741   -701.52224    293643.18    14.884671 
15257500    1974.7733   -758.11286    296115.65    15.382712 
15258000    2121.4135   -783.40884    308397.75    15.680983 
15258500    2120.4599   -800.18196     279454.1    15.848218 
15259000     2036.925    -779.1785     289985.3    15.800001 
15259500    1986.2826   -779.54351    309431.31    15.726277 
15260000    1698.3026   -794.92354    300310.18    15.786322 
15260500    1850.4587   -774.49085    300096.04    15.680434 
15261000     2124.827   -715.22547    302036.12    15.120389 
15261500    2116.5351   -715.91156    295292.02    15.200129 
15262000      2047.36   -773.62628    304279.13    15.467212 
15262500    1941.4026   -783.84675    294058.94    15.750156 
15263000    1847.8648    -795.5658    293979.79    15.816811 
15263500    1923.3134   -790.39299    298495.65    15.729638 
15264000    1956.8931    -749.3357    302864.44    15.361948 
15264500     1928.174   -779.73672    283352.08    15.870528 
15265000    2095.5074   -773.83107    319123.99    15.826034 
15265500    2063.2777   -761.37954    287670.62    15.617472 
15266000    2174.8733   -700.44872    310961.67     14.95677 
15266500    2120.2047   -690.73018    300244.43    14.903393 
15267000    2123.1485   -707.27786    306482.44    15.006516 
15267500    1966.9878   -775.52534    292567.17    15.679483 
15268000    2131.4734   -787.03046    313070.32    15.729434 
15268500      2175.92   -745.38891    300797.34    15.278229 
15269000    2010.6039   -717.38323    301257.99    15.176837 
15269500    1979.4164   -772.07566    299403.24    15.560577 
15270000    1918.0183    -771.3481    289230.98     15.86384 
15270500    1903.3333   -729.83825    301024.22    15.583812 
15271000    1879.3101   -627.80335    301659.88    14.919253 
15271500    1883.1298   -594.20064    287068.52    14.605613 
15272000    2063.1087   -622.43603    298624.45    14.736903 
15272500    2107.1157   -601.57322    299040.78    14.690521 
15273000    2071.2475   -598.93758    292368.45    14.592118 
15273500    1933.9738   -716.24286    298114.19    15.484159 
15274000    2020.2656   -674.79487    302705.74    15.326429 
15274500    2088.7287   -668.39328    309594.81    15.258347 
15275000    1799.1187   -667.75625     295728.5    15.238906 
15275500    1835.7794   -707.83576    297233.35    15.538354 
15276000    1890.7639   -717.61236    302125.85    15.569544 
15276500     1929.825   -682.24169       302403    15.274721 
15277000    1842.0557   -641.67519    299499.82    15.203728 
15277500    2003.8652   -720.65406    287612.13    15.922158 
15278000    2026.8736   -703.85382    297534.64    15.599844 
15278500    2128.0262   -669.28632     300979.2    15.276474 
15279000     2140.256   -670.13231    301070.39    15.306167 
15279500    1935.6391   -692.39979    296871.58    15.467388 
15280000    2014.6472   -741.86506    296939.67    15.929545 
15280500    1883.5045   -754.74547       290689    15.936676 
15281000    2135.7528   -651.02077    301086.81    15.211473 
15281500    1981.3772   -629.41724    301096.56    14.891502 
15282000    1835.7592   -628.94718    304260.66    14.759467 
15282500    2066.3849   -659.19758    298155.27    14.856712 
15283000    1883.8829   -746.32316    294457.32    15.506466 
15283500    1892.4448   -737.04731    301946.12    15.324817 
15284000    2071.9961   -759.11624     299763.2    15.622426 
15284500    2039.2909   -744.16522    305362.77    15.527215 
15285000     2128.413   -712.54212    304436.49    15.365413 
15285500    1906.5004   -735.03149    299320.61    15.601599 
15286000    1924.0466   -734.64973     300850.4    15.500176 
15286500    1915.1544   -598.63309    309996.24    14.756636 
15287000    2044.0512   -727.28103     301372.4    15.551611 
15287500    1978.5071   -748.15796    299271.42    15.728411 
15288000    1915.6345   -751.39027    301034.14    15.797546 
15288500    1970.3269   -767.52128    291332.91      15.9556 
15289000    2128.6973   -586.76564    312782.66    14.597721 
15289500    1893.0035   -622.29288    303381.07    14.747082 
15290000    2101.9103   -610.12596    299206.64    14.634111 
15290500    1922.1085   -677.55382    301839.13    14.926463 
15291000    2089.1332   -761.57938    296543.12    15.773658 
15291500    2192.6097   -742.48977    299596.09    15.568005 
15292000    2046.8773   -725.05076    302436.36    15.603284 
15292500    2127.2567   -725.91431     301811.7     15.75304 
15293000    1869.7889   -695.75169    300537.65    15.700491 
15293500    1919.9347   -710.96101    303384.46    15.775364 
15294000     1921.179   -726.62585     297944.8    15.853957 
15294500    2161.7881   -676.58901    299952.73     15.36126 
15295000    1851.8567   -659.02582    297634.68    15.316537 
15295500    2153.6163   -609.60833    299133.56    15.007123 
15296000     1959.555   -722.65321    295904.96    15.943785 
15296500    2040.6268   -719.11925    294510.81    15.842064 
15297000    1788.6907   -724.32982    295317.21      15.9142 
15297500    2005.3397   -644.90172    305201.57    15.291836 
15298000    1941.0194   -600.64845    310566.07    14.914494 
15298500    2135.7336     -621.668    303895.27    15.102918 
15299000    2144.9089   -658.61581    304961.91    15.299566 
15299500     2025.577   -717.71626    296117.01    15.906884 
15300000    2149.9017   -679.29367    300488.59    15.475582 
15300500    1822.7809   -603.46953    307619.62    14.918606 
15301000    1959.2016   -605.28727    308684.15    14.900319 
15301500    2089.1855   -715.46393    294317.67    15.888945 
15302000    2182.2556   -664.22225    300653.71    15.399495 
15302500    1984.1046   -688.23294    300939.98    15.435728 
15303000    2098.7249   -656.60903    300641.39    15.297849 
15303500    1894.4267   -582.96538    300831.41    14.836071 
15304000    2172.7808   -729.05514     296830.2    15.932004 
15304500    1954.5899   -727.98413    297755.14    15.832903 
15305000    1982.6553   -729.79057     297872.7    15.846065 
15305500    2126.2755   -690.65839     306215.4    15.618821 
15306000     1955.908   -733.03854    296867.39    16.022771 
15306500     2011.354   -662.31122    301779.76    15.329285 
15307000    2180.9858   -634.66582       299654    15.101709 
15307500     1986.288   -652.39393    297923.82    15.159145 
15308000    1992.3507   -651.50538    298356.45    15.074781 
15308500     1937.946   -632.81766    292373.37    14.906312 
15309000    2004.2709   -638.03223    300718.93    15.066252 
15309500    2014.6995   -661.14809    292206.23    15.128363 
15310000    1828.9798   -624.95381    305279.05    14.996271 
15310500    1860.0351   -691.83125    294821.04    15.472895 
15311000    1982.7519   -680.89501    300574.77     15.49138 
15311500    2099.9521   -670.88192    302325.69    15.299804 
15312000    1965.3443   -695.01338    297360.33    15.528944 
15312500    2007.3918   -713.51542    301205.59     15.75418 
15313000    2038.9792   -672.99385    296622.92    15.303489 
15313500    2040.5072   -619.81524    302850.77    14.864223 
15314000    2133.4606   -609.41846     304793.3    14.895508 
15314500    2117.7496   -633.74177     306841.6    14.847005 
15315000     1863.619   -644.62238    296276.37    14.950851 
15315500    1982.5366   -638.03309     292250.1    14.823271 
15316000    2179.9213   -587.86625    298554.44    14.628832 
15316500    1996.7482    -613.0926    311764.29    14.641881 
15317000    1869.0514   -658.72097    280661.44    14.844277 
15317500     1980.447   -683.29152    305748.48    14.829575 
15318000    2033.0389   -677.59579    291150.72    14.829146 
15318500    1914.7967   -685.11897    301937.99    14.911097 
15319000    1862.2202   -600.08662     287409.4    14.602725 
15319500    1994.2414   -622.21872    296815.47    14.651115 
15320000    2087.9091   -634.73227    284908.31    14.701677 
15320500    2123.8656   -615.94543     291450.9    14.687556 
15321000    1993.1244   -580.97888    306985.27    14.532347 
15321500    2003.9349   -591.01342    301221.14    14.564449 
15322000    2014.8845   -595.71141     294349.3     14.57206 
15322500    1845.4966    -643.2919    300766.41    14.743751 
15323000     2130.807   -613.70544    317063.15    14.614192 
15323500    2169.7099   -613.35887    298630.83    14.714018 
15324000    2188.6352   -590.92194    317526.38    14.505896 
15324500    1997.9653   -647.50056    294157.43    14.767935 
15325000    2221.4635   -719.50566    301603.98    15.148806 
15325500     1990.868   -681.49222    304723.53    14.865952 
15326000     2169.978    -678.0702    310411.71    14.804971 
15326500    2063.8612   -696.27866     302767.9    14.911652 
15327000     1891.123   -703.86619    297354.62    14.948343 
15327500    1989.3474   -736.97752    290643.75    15.172932 
15328000    2150.7301   -677.00321    308827.52    14.821447 
15328500    2046.8957   -729.58609    301865.44    15.169745 
15329000    1884.9139   -700.74268    296227.08    14.896103 
15329500    1997.2292   -698.68229    297828.79    14.879506 
15330000    1809.2004   -692.48945     302996.2    14.832726 
15330500    1960.5014   -702.56885    294815.91    14.921493 
15331000    1944.8786   -730.28112     308010.5    15.093136 
15331500    2016.2078   -685.09264    291728.79    14.820829 
15332000    1995.5975   -690.28451    299428.26    14.815889 
15332500    1826.9308   -701.45049    304317.55    14.906587 
15333000    1986.2131   -706.17278    293668.11    14.941275 
15333500    1911.4013   -697.84797    289444.39    14.926446 
15334000    2137.8837   -686.52593    311844.19    14.844398 
15334500    2101.4354   -679.97509    318900.21    14.744977 
15335000    2087.1101   -689.02976    293653.45    14.840165 
15335500    2028.4246   -692.71544    293288.42    14.891721 
15336000    1859.2758   -706.64746    296898.82    14.910288 
15336500     2008.965   -718.01357    296895.17    15.105004 
15337000     1990.775   -707.55133     299755.3    14.995002 
15337500    2146.3257   -714.37805    293196.35    15.098208 
15338000    1904.5545   -685.73089    302708.12    14.870508 
15338500    2290.5063   -682.70321    309607.69    14.847282 
15339000    1773.8982   -651.12013    310945.39     14.64754 
15339500    2235.7269   -747.48294    300597.53    15.304602 
15340000    1779.5713   -687.89962    298431.96     14.92239 
15340500    1937.1951   -690.71598    295443.52    14.902364 
15341000     1933.546   -685.20282    303726.09    14.909739 
15341500    2094.9778   -678.10011    306578.28    14.828503 
15342000    2123.5358   -728.40778    305614.53    15.140312 
15342500    2290.5034   -673.55211    312907.43    14.827805 
15343000    2103.2569   -706.22721    298131.39    15.056128 
15343500    1961.6633    -690.5083    297984.91    14.904737 
15344000    1852.9418   -707.18709    292913.25    14.977507 
15344500    1969.3565   -682.45877    295860.07    14.890225 
15345000    1804.9624   -691.58113     305784.9    14.907138 
15345500    1988.5482   -712.70962     298700.4    15.024031 
15346000     1950.866   -682.55212       300395    14.919341 
15346500    2034.7477   -677.15341    298302.05    14.909188 
15347000    1875.0078   -680.08608    300947.68    14.892207 
15347500    2016.2298   -655.47607    301896.73    14.772673 
15348000    2012.4034   -645.09273    286807.79    14.699322 
15348500    1957.7944   -690.78469    299078.22    14.967582 
15349000    1871.1282   -688.81565    282512.28    15.005134 
15349500    1976.2695   -629.96315    310274.23    14.623481 
15350000    2029.7855   -673.54779    304929.45    14.845424 
15350500    1891.1855   -676.57907    305065.97    14.832834 
15351000    2039.9936   -753.37637    286228.76    15.447242 
15351500     2022.801   -764.52513    295930.17     15.50763 
15352000    1913.7467   -747.43386    298093.17    15.370182 
15352500     1988.717   -736.68939    303693.55    15.196945 
15353000    2167.5821   -735.93655    310023.28    15.169078 
15353500    2140.3991   -747.59673    294476.59    15.256822 
15354000    2077.3567   -692.47206    310069.24    14.857055 
15354500    2135.6812   -720.88823    302992.98     15.07081 
15355000     1819.844   -689.26409    297114.24    14.926077 
15355500    2093.8759   -685.03933    298675.17    14.840476 
15356000    2135.9259   -702.56003    297713.43    14.933288 
15356500    1910.5447   -698.72879    293291.61    14.906126 
15357000    1907.7633   -685.62197    306085.02     14.79889 
15357500     1943.667   -692.69735    312447.28    14.798941 
15358000     1915.204   -739.46233    299761.55    15.220903 
15358500    1726.8673   -716.84849    280497.74     15.03108 
15359000    1851.6296   -736.10722    300316.39    15.172582 
15359500    1982.2493    -726.0071    303869.85    15.131986 
15360000    1937.9456   -686.68867    298275.09    14.932352 
15360500    2016.1304   -673.51599    296424.39    14.854284 
15361000    1961.3165    -633.3174    296905.02    14.726341 
15361500    2130.0863   -606.16323     301276.4    14.684227 
15362000    2179.3988   -628.78515    304437.56    14.683334 
15362500    1996.2413    -602.8785    301324.92    14.539519 
15363000    2086.4809   -682.63343    302345.68    14.931098 
15363500    1833.5657   -662.91732    298487.75    14.853728 
15364000    1941.7025   -660.98834    302525.22    14.794024 
15364500     2082.614   -682.34523    311783.05    14.824361 
15365000    1798.2106   -674.15372     305937.7    14.819698 
15365500    1836.7231   -745.85815    295078.74    15.341547 
15366000    2016.0008   -681.01882    307930.33     14.87981 
15366500     1901.503   -690.08315     295489.6    14.879162 
15367000    2203.6553   -701.83512    295267.68    14.965664 
15367500    1904.6541    -722.1542    289153.36    15.090665 
15368000    1956.6283   -714.37803    299147.77    15.061258 
15368500     2075.746   -652.15016    307558.76    14.711862 
15369000    2238.3009   -667.54643    310226.17    14.739997 
15369500    2036.5228   -693.35655    293535.64     14.88753 
15370000    2049.6379   -691.80642    309045.74    14.872363 
15370500    1799.1501   -687.02259    298122.37    14.840129 
15371000    1927.0802   -677.47406    305628.36    14.768852 
15371500    1978.0419   -714.77736     293339.2    15.017362 
15372000    1887.1843   -706.18119    304804.38    14.885283 
15372500     1925.193   -678.28116    304891.28    14.768422 
15373000    2093.2555   -686.86833    308917.34    14.813007 
15373500    2054.5241   -703.08985    302388.43    14.880345 
15374000    2001.5305   -679.72818    297967.73    14.745164 
15374500    2113.5759   -699.82837    283661.83    14.901221 
15375000    2081.5318   -702.46393    293136.52    14.940192 
15375500    2140.1365    -663.6055    302089.61    14.744567 
15376000    2041.4303   -670.76254    299356.83    14.838833 
15376500     1878.431   -673.63475    303729.64    14.826153 
15377000    2023.9542    -743.2106    298188.53    15.256119 
15377500     2036.564   -669.83858    305351.72    14.822892 
15378000    1988.5419   -688.79405    299026.46    14.878524 
15378500    2061.3373   -707.43341    298596.51    14.997539 
15379000    1897.1435   -698.28952    299145.48    14.879946 
15379500    1781.5083   -661.83897    304154.07    14.727557 
15380000    2134.4437   -688.95818    304141.74    14.878607 
15380500    1925.1256   -670.82014    303175.76    14.824375 
15381000    2041.1627   -742.62886    303283.12    15.306854 
15381500     1908.052   -678.65378       298575    14.841326 
15382000    1882.8587   -674.32283    301215.93    14.848199 
15382500    2008.3572   -708.73402    296753.34    14.992271 
15383000    1907.1678    -699.1007     302305.4    14.913139 
15383500    1962.9943   -691.72426     298485.7    14.840703 
15384000    2213.4789   -692.25142    313561.41    14.830469 
15384500    2009.5298   -657.89856    304227.63    14.785685 
15385000     1859.914   -655.58644    306590.97    14.756941 
15385500    1971.0423   -635.27174    303068.53    14.744183 
15386000    2167.6307   -601.01133    305532.84    14.632468 
15386500    1985.7764   -668.19605    297505.03    15.009525 
15387000    2013.4057   -627.92738    296319.41    14.902476 
15387500    1896.1139   -699.41977    296795.83    15.518943 
15388000    2055.7166   -741.47762    296372.61    15.981868 
15388500    2148.5298   -689.44612    301693.82    15.525896 
15389000    2100.6572   -677.52366    303793.06    15.404514 
15389500    2143.2391   -668.43812    300112.97    15.547124 
15390000    2065.5514   -650.92488    302216.79     15.22613 
15390500    2083.8513   -550.32948    290656.08    14.640957 
15391000    2309.6615   -551.63294    299133.29    14.654567 
15391500    2090.6348   -706.83845    300409.05    15.515137 
15392000    1925.5579    -671.5863    301505.76    15.348747 
15392500    2008.4425   -667.28501    303795.73    15.195783 
15393000    1812.7082   -644.57435    300008.85    15.173003 
15393500    2187.5711   -556.84929    350133.66    14.496723 
15394000    1910.2474   -602.30328    304713.35    14.788355 
15394500    1905.7778   -651.11737    293129.73    15.163583 
15395000    1842.7521   -640.33581    294712.77    15.055694 
15395500    2005.7542   -638.08286    298044.51    14.936814 
15396000    1904.9517   -644.53819    301755.31    15.083614 
15396500    2049.6986   -631.06875     302983.9    14.887825 
15397000    2204.3839   -628.47376    306996.29    14.907523 
15397500    2032.3024   -762.40129    284972.22    15.912278 
15398000    2042.8548   -661.62321    297348.13    15.267804 
15398500    2124.0215   -705.09392     296544.8    15.546272 
15399000    1849.1374   -677.10625    305213.58    15.261828 
15399500    2028.5781   -717.08289    292909.39    15.609757 
15400000    1980.1358   -699.18884    293855.02    15.392618 
15400500     2057.935   -720.20712    304197.44    15.622933 
15401000    1975.6276   -736.80335    297961.17    15.884327 
15401500     1914.936   -704.04695    294884.77    15.649568 
15402000    1871.4668   -702.93432    299321.02    15.662769 
15402500    2080.4439   -748.24385    301588.28    16.082863 
15403000     2067.448   -745.67774    301141.97    15.984538 
15403500    1991.4725   -688.79196    293645.11    15.605958 
15404000    2003.0134   -636.71703    298792.21    15.139551 
15404500    1862.1969   -611.56656    299826.25    14.927301 
15405000    1944.6678   -640.47808     295205.4    14.939527 
15405500    1930.6733   -551.99421    332072.05    14.525582 
15406000    1952.9617   -689.35491    297758.68    15.225623 
15406500    1927.7814   -748.68942    297516.05    15.617858 
15407000    2029.7243   -726.11407    299575.08    15.427778 
15407500    1971.6395   -607.57151    309591.47     14.80742 
15408000     2064.895   -647.34088    297682.81    15.035922 
15408500    1920.3378   -645.33778    303960.34    15.048212 
15409000    1832.0213   -603.40829    306964.95    14.809599 
15409500    2073.4827   -706.42189    290955.12    15.609292 
15410000    1862.2474   -630.00878    296290.91    15.013826 
15410500    1997.8278   -638.20611     298060.6    15.000912 
15411000    1983.9358   -615.67762    309437.37    14.822432 
15411500    2052.5417   -708.22723    297621.85    15.443406 
15412000    2119.8182    -623.8575    308222.91    14.872691 
15412500    2008.2812   -726.25561    305061.28    15.541873 
15413000    2054.8312   -739.02623    298116.91    15.839877 
15413500    2131.1322   -751.25639    297696.41    15.880314 
15414000    2057.7839   -716.81721     302469.2    15.756337 
15414500    1992.5268    -713.1676    301788.46    15.716609 
15415000    2166.2733   -670.44059    302879.16    15.319736 
15415500    2163.3108   -698.95124    303318.61    15.509937 
15416000      2109.55   -596.35188    316862.37    14.799474 
15416500    2146.8989   -710.68284    300462.79    15.629901 
15417000    1968.7507   -759.47431    298748.24    15.987293 
15417500    2009.2906   -750.54392    300753.98    15.701054 
15418000    2111.3703   -758.20205    302254.38    15.751757 
15418500    2074.3952   -731.02636    301865.23    15.345864 
15419000    1829.6438   -717.96583    298507.45     15.40825 
15419500    2127.6501   -736.03853    301190.71    15.371623 
15420000    2111.7047   -743.25225    302461.86    15.446064 
15420500    2097.8521   -738.45392    299651.36    15.383381 
15421000    1803.4232   -741.13197     295917.9    15.464336 
15421500    2005.2333   -730.47976    305273.53    15.270098 
15422000    2139.0875    -652.2424    303150.31    14.833794 
15422500    2034.3713   -643.06571    305566.81    14.778118 
15423000    1976.0423   -744.79868    296440.53    15.431872 
15423500    1972.7952   -724.73514     299880.3     15.24933 
15424000    1919.6436   -741.30509    299130.34    15.395407 
15424500    1928.5241   -755.86283    296641.07    15.481474 
15425000    1957.3546   -724.61688    301712.11       15.314 
15425500    2306.3328   -771.06152    303529.81    15.732393 
15426000     2025.521   -756.75397    300688.47    15.635259 
15426500    1812.6183   -759.79352    294223.78     15.65669 
15427000    1821.5352   -716.89252    307819.87    15.236154 
15427500    1868.2794   -764.39269    299620.57    15.625026 
15428000    1888.7583   -749.50488       302135    15.418223 
15428500    2069.1929   -756.86875    301225.34    15.521558 
15429000    1937.4047   -752.90355    297229.75    15.535166 
15429500    1861.6212   -765.54601    299063.18     15.72714 
15430000    2137.9878   -761.46906    301254.71    15.633607 
15430500    1919.6043   -763.18009    296882.57    15.824584 
15431000    2191.3939   -683.96073    297396.07    15.055973 
15431500    2196.6633   -603.67186    304233.33     14.62888 
15432000    1925.1177   -627.49112    296003.73    14.779184 
15432500    1867.9975    -650.6567    296983.44    14.947325 
15433000    2036.1222    -697.2583    300802.39     15.37661 
15433500    2081.6074   -678.75774    302044.68    15.301586 
15434000    1855.3198   -648.86025    297313.53    15.134371 
15434500     1996.624   -649.34904    301836.27     15.07093 
15435000    2044.6728   -722.22371    294781.79    15.841395 
15435500    1939.4776   -682.51029    296034.84    15.498377 
15436000    1887.7187   -599.63492    311523.94    14.840472 
15436500    1996.7232   -539.16596    308131.56     14.54436 
15437000    2130.8314   -552.50799    295486.44    14.627767 
15437500    2093.7676   -605.18074    299199.76    14.701603 
15438000    1762.4085   -674.57869    295890.32    14.958015 
15438500    1814.1028   -694.61435    298736.22    15.042622 
15439000    2009.4772   -664.23164    309165.74    14.814127 
15439500    1917.7219   -703.29924    300610.92    15.186992 
15440000    2088.8796   -728.80728    306513.08    15.302337 
15440500    1914.1648   -737.92469     301091.6    15.314189 
15441000    2067.2601   -721.41466    286962.34    15.182169 
15441500    1966.9335   -688.14354    301404.17    14.971773 
15442000     2075.153   -739.78369    294416.42    15.316972 
15442500    1872.7821   -725.53726    295871.72    15.224478 
15443000    2091.9669   -738.20385    295231.97    15.439919 
15443500    1843.5882   -702.91677    297790.42    15.149689 
15444000    1918.7991   -696.46888    299404.07    15.095356 
15444500    1969.0625    -729.8123     302030.1    15.367771 
15445000    2016.5831   -747.18082    299992.44     15.56789 
15445500    2120.4041   -739.13565    296305.83    15.387193 
15446000     2097.567   -656.56292    303881.01     14.88809 
15446500    2008.0616   -614.26006     298700.8    14.640142 
15447000    1940.7075   -619.02634    298752.71    14.720654 
15447500    2085.3219   -762.53409    301835.74    15.715903 
15448000     1841.676   -755.55086    300099.88    15.584072 
15448500    2017.6326   -753.60661    298513.14    15.577791 
15449000    1955.5913   -740.49134     296574.7    15.443123 
15449500    2083.7372   -756.40786     294414.9    15.526574 
15450000    1946.6038   -765.66993    295746.15    15.823651 
15450500    2204.4464    -766.0873    302239.07    15.699234 
15451000    2050.7651   -755.65283    295206.46    15.698387 
15451500    1755.6034   -755.13056     292385.1    15.915461 
15452000    1908.3807   -751.61103    296213.04    15.923544 
15452500    2188.1167    -764.3471    290075.04    15.871723 
15453000    1930.0795   -620.29898    308270.82    14.900659 
15453500    1963.0879   -628.33355    299678.09    14.893547 
15454000    1960.6087   -636.12472    295910.49    14.958998 
15454500    2086.0208   -628.86214    296748.93    14.953419 
15455000     2006.269   -619.98165    305855.88     14.89548 
15455500    2027.7626   -654.55935    294631.87    14.955267 
15456000    1901.5978   -652.22923    289344.65    14.902989 
15456500    1916.6289   -627.55429     305282.2    14.884986 
15457000    1980.4556   -692.74667    291253.57    15.480623 
15457500    1876.1835    -694.4438    297551.44    15.308638 
15458000    2022.3017   -685.52274    304551.41    15.320935 
15458500     2073.308    -705.1082    297945.22     15.48156 
15459000    1988.1958   -655.98315    294247.94    15.100584 
15459500     2087.376   -654.54177    297065.65    15.136237 
15460000    1893.2533   -630.87827    300974.45    14.970395 
15460500    2049.5543   -738.62683    284150.99    15.781758 
15461000    2019.1282   -770.34214    305578.97    15.863582 
15461500    2086.4317   -772.18363    295567.28    15.836701 
15462000    2079.9884   -746.59752    305347.58    15.420959 
15462500    1952.4984   -676.88694    299646.43     14.94045 
15463000    2043.4852   -696.50294    302312.64    14.993741 
15463500    1829.7752   -706.30666    299072.54    14.994909 
15464000    2036.7336   -622.15339    335642.08    14.494826 
15464500    1867.5045   -762.60421    298024.55     15.49233 
15465000    2104.3036   -778.48125    304322.03    15.546011 
15465500    2145.8848   -774.50882    303683.33    15.484063 
15466000    1931.0397   -766.34237    299194.69    15.496028 
15466500    2108.8663   -791.53861    297116.17    15.668809 
15467000    2094.1803   -786.73728    301134.78    15.674007 
15467500    2124.0619   -791.64709    292087.82    15.721896 
15468000    2308.1597   -795.97197    297759.68     15.66185 
15468500    1962.6728   -783.65029    310705.03    15.686164 
15469000    1909.8017   -775.31866    302442.12    15.591553 
15469500    1916.9465   -785.75666    310070.28    15.800098 
15470000    2234.6054   -792.64434    297134.63    15.832653 
15470500    1975.6754   -751.71423    303621.77     15.40493 
15471000    2067.0509   -738.19956    298287.32    15.186276 
15471500    1919.0846   -679.43478    291954.97    14.878229 
15472000    2003.9846   -706.23624    300634.64    14.916192 
15472500    1813.5219   -742.23705    299689.28    15.334443 
15473000    2096.8797   -751.52331    300033.68     15.20418 
15473500    1940.1878   -735.08836     296462.8     15.13654 
15474000    2029.2225   -744.71032    303550.65    15.134297 
15474500    2123.2593    -631.3519    335692.05    14.504183 
15475000    1900.6636    -798.6119    277811.31    15.838635 
15475500    1922.5878   -769.47431    302294.66    15.542805 
15476000    2018.4487   -737.28359    302773.67    15.076148 
15476500    1864.5937   -716.90649    292921.61    15.023637 
15477000    1906.2781   -697.59214    295260.06    14.919071 
15477500    1967.9022   -734.22509    297695.72    15.226772 
15478000    2023.0772   -709.62788    305498.83    15.051899 
15478500    2017.6827   -661.61765    308550.48    14.722353 
15479000    1948.5129   -677.91097    301982.74    14.809051 
15479500    2030.6345   -677.86552    300111.03    14.868372 
15480000    1907.4932   -693.97145    299007.54    14.837299 
15480500    1797.0791   -693.01506    317184.58    14.763429 
15481000    2060.7779    -637.6896    301335.79    14.548864 
15481500    1923.9494   -770.17745    296704.95    15.372522 
15482000     2001.758   -806.56664    311486.98    15.827864 
15482500    2075.3536   -798.11898    306900.78    15.763025 
15483000    1887.4788   -809.39768    307702.24    15.828522 
15483500    2126.3889   -787.68199    315163.77    15.715547 
15484000    2020.1895   -794.66333    293020.55    15.777225 
15484500    1941.1717   -744.70202    302406.25    15.445594 
15485000    1838.6363   -794.03827    303597.88    15.736066 
15485500    1938.4528   -794.17018    303827.85    15.772189 
15486000    1966.5639   -780.17209    302187.11     15.53602 
15486500    1976.1153   -792.01507    294174.43    15.605358 
15487000    2078.1039   -737.00084    296507.31    15.244457 
15487500    2152.2689   -691.67622    310312.11     14.78149 
15488000    2052.4794   -763.40051    293899.09    15.431797 
15488500    2027.3719   -771.29753    299502.36    15.614899 
15489000     2111.046   -701.61489    300711.01    14.955196 
15489500    1931.0989   -696.07105    301650.29    15.021758 
15490000    2021.2219   -704.69008    306408.96    15.024351 
15490500    2074.9765    -718.3266    303218.47    15.099463 
15491000    2064.1992   -752.03796    296863.18    15.248486 
15491500    1907.1741   -786.48446    305020.48    15.514567 
15492000     1969.085   -793.68572    299875.13    15.715387 
15492500    2102.3944   -797.22547     289503.6    15.553005 
15493000    1976.4797   -789.61837    296822.73    15.584174 
15493500    1890.9552   -785.37042    303095.64     15.50777 
15494000    2127.7264   -787.83179    300803.58    15.705343 
15494500    2149.5481   -768.66295    301737.21    15.526083 
15495000    1955.8507   -795.40797    292840.69    15.573195 
15495500     2016.243   -684.57254    306638.77    14.750958 
15496000    1862.3341   -649.73134    300652.32    14.597523 
15496500    1942.4734   -648.03483    283658.19    14.563086 
15497000    2074.0875    -648.1778    296413.71    14.611418 
15497500    2074.0889   -626.03656    327380.11    14.502043 
15498000    1996.3257   -754.42381    297707.86    15.343175 
15498500    2137.7264   -739.66026    305292.55    15.105375 
15499000    1896.6058   -683.25623     296616.5    14.939435 
15499500    2198.3994    -694.3006    309426.05    15.032992 
15500000    2046.9079   -729.15173    300320.27    15.135239 
15500500    1938.7659   -747.19506    297207.27    15.211989 
15501000    1963.5727   -746.64016     300306.3    15.173124 
15501500    1970.6914   -796.99374    304175.58    15.752894 
15502000    2149.8292   -761.83829     303863.3    15.457778 
15502500    2055.6574   -750.39327    307892.69    15.548449 
15503000    2170.3869   -763.10377    302444.09    15.528292 
15503500    2048.6488   -759.04256    299359.21    15.426878 
15504000    1965.4914   -757.73618    300549.57    15.587196 
15504500    2098.2803   -758.83681    289614.64    15.563074 
15505000    1910.1719   -754.46977     275617.8    15.662983 
15505500     1942.446   -687.86913    298096.04    15.038755 
15506000    1922.3263   -750.86633    299827.07    15.614113 
15506500    1997.6865   -747.39991    309117.64    15.558275 
15507000    1940.4815   -767.26112    291349.64    15.866856 
15507500    2194.6667   -761.08356    301777.76    15.869503 
15508000     1982.463    -753.5241    299311.15    15.849954 
15508500    1858.6513   -737.82497    294593.56    15.869582 
15509000    1954.0404   -765.59643    289910.93    15.911345 
15509500    2041.2539   -724.95818    305605.36     15.34993 
15510000    1897.9524   -763.49492    299788.56    15.659845 
15510500    1900.5043   -759.66446    300767.78    15.679265 
15511000    1983.0831   -747.34033    300640.56    15.591782 
15511500    1911.0644   -693.16781     301829.7    15.326854 
15512000    1998.1973   -741.40146    287923.47    15.900506 
15512500    2020.4371   -696.25954    305822.36    15.298558 
15513000    1779.9915      -573.23    316868.43    14.503128 
15513500    1761.4612   -665.74211    296277.64    14.860419 
15514000    2037.7169   -673.29847    304011.34    14.914599 
15514500    1806.8896   -698.41644    294019.37    15.021242 
15515000    2028.0079   -690.23691    301284.06    14.964358 
15515500    2014.6364   -710.02239    300227.45    15.153731 
15516000    2012.8173   -757.29261    297704.16    15.496697 
15516500    1993.7787   -752.62329    301543.98     15.49051 
15517000    2083.3879   -685.39366    295003.28    15.115481 
15517500    2019.5947   -646.82658    301809.25    15.013578 
15518000    2073.3597   -712.30158     303482.5    15.564421 
15518500    1773.8141   -679.42133    300974.17    15.387025 
15519000    2010.9109   -694.44339    301489.26    15.397251 
15519500    1900.6845   -724.70966    301204.38    15.629525 
15520000    1897.7421   -721.66023    302967.43    15.483678 
15520500    2012.0278   -665.31899    298511.41    15.200715 
15521000     2127.514   -696.87138    297423.63    15.481311 
15521500    2034.0959   -681.26443    302339.08    15.446698 
15522000    1965.8085   -743.39773    297263.21    15.867592 
15522500    1942.8776   -732.50937     298862.4    15.804198 
15523000     1980.752    -683.4267    301204.24    15.456549 
15523500    2073.5409   -705.19343    304477.05    15.480855 
15524000    1966.2325    -689.3205    303803.29    15.413342 
15524500    1978.1568   -706.79864    297680.74    15.518615 
15525000    1981.0624   -709.91007    292637.11    15.362992 
15525500    1997.7482   -675.67317    304361.34    15.198979 
15526000     2002.626   -726.44603    302549.87     15.53761 
15526500    2079.6231   -718.08078    309994.23    15.060121 
15527000    1954.3229   -776.34774    294833.96    15.599452 
15527500    2055.3044   -785.36442    304311.22    15.577226 
15528000    2337.6045   -783.38923     309248.4    15.413684 
15528500    1844.2421   -756.08797    292993.97    15.201061 
15529000    1833.8395   -736.53989     307707.2    15.052315 
15529500    2126.3678   -755.83474    304343.22    15.107386 
15530000      1899.17   -761.03442    294760.29    15.153885 
15530500     2054.772   -754.12396     308329.3     15.07186 
15531000    2005.5574   -746.29274    303269.03    15.113363 
15531500    1846.1812   -758.58375    297060.82    15.126284 
15532000     2000.273   -759.08542    298782.13    15.136688 
15532500    2104.9346   -743.07424    307420.34    15.093152 
15533000    1922.9346   -714.49595    302174.37    14.927064 
15533500    1963.5436   -753.86816    296324.39    15.186252 
15534000     1886.896   -750.32354    301469.38    15.364128 
15534500    2022.7287   -777.39772    293427.55    15.626077 
15535000    1983.6198   -787.26059    306201.57    15.725004 
15535500    2055.7602    -795.7833    297871.47    15.794797 
15536000    2064.0825   -691.55455    299769.96    14.876138 
15536500    2034.8707   -695.29206    306778.43    15.075985 
15537000    1899.4476   -695.27889    303442.05    15.137585 
15537500    1931.3339   -696.87587    302694.89    15.051138 
15538000    2141.7183   -701.15022    303958.56    14.949363 
15538500    1951.7018   -715.78348    296782.27    15.110443 
15539000    1902.0766   -763.47272    283561.55    15.550195 
15539500    1987.5014   -768.54712    286600.92    15.606748 
15540000    1948.0212   -665.91622    298400.45    14.802612 
15540500    2121.2682   -669.03575    307580.65    14.762946 
15541000    1989.0378   -653.77136    292847.69    14.872708 
15541500    1949.3335   -667.10273    291368.29    14.902748 
15542000    1863.3982   -652.74932    283860.43    14.632121 
15542500    1915.9151   -614.51191     293039.4     14.52558 
15543000    1949.9889    -610.3056     288962.6    14.561041 
15543500    2061.4931   -598.06536    289822.87     14.62782 
15544000    1954.1466    -601.9065    299873.47    14.748671 
15544500    1742.9925   -722.41656    279392.69    15.669252 
15545000    1980.5366   -705.19285    300004.22    15.450599 
15545500    1970.5994   -687.09127    303633.64    15.367906 
15546000    2067.8087   -666.61066    298772.44     15.24439 
15546500    2020.5855   -664.15273    304799.55    15.177216 
15547000    1964.4117   -718.06864     300709.8    15.543635 
15547500    2057.0432   -705.10654    295009.59    15.488397 
15548000    2041.2586   -679.38036    299692.56    15.379225 
15548500    1939.5812   -704.90042    296982.16     15.53516 
15549000    2123.6979   -635.98498    301480.99    15.081977 
15549500    2055.4195   -659.93542    298361.42    15.295024 
15550000    1916.6306   -733.09473    301083.09    15.709999 
15550500     2158.524   -716.86593    301158.57    15.666484 
15551000    1892.9334   -665.17192    299208.72    15.283942 
15551500    1936.5074   -668.22139    306043.04    15.294082 
15552000    2068.6588   -689.92075    301510.31    15.207128 
15552500    1913.2014   -767.62914    298302.26    15.785391 
15553000    2052.6159   -742.30496    301783.69    15.489443 
15553500    2147.6526   -766.26025    295452.74    15.711976 
15554000    1931.0878   -720.39863    302884.43    15.259364 
15554500    2094.3288   -763.23863    302439.07    15.667027 
15555000    1907.9169   -758.27515    298255.77    15.722718 
15555500    1924.8245   -764.13928    300457.43    15.740481 
15556000    1975.2667   -777.17055    294050.63    15.835781 
15556500    1950.4299   -673.22056    308033.08    14.893395 
15557000    2064.6871    -684.5145    298626.58    15.007231 
15557500    1823.7195   -607.22286    305285.33    14.587244 
15558000    1848.3175   -634.00783    291425.13    14.815288 
15558500    2077.5313   -665.51711    299324.08    14.875459 
15559000    2026.4047   -747.54702    297874.58    15.468061 
15559500    2045.7765    -750.1058     300291.6    15.498989 
15560000    2014.5875   -733.48639    295514.42    15.432314 
15560500    1969.8458   -749.06441       299711    15.520234 
15561000    1934.4718   -741.11697    295585.93     15.50377 
15561500    2033.7267     -579.548    309124.34    14.533074 
15562000    2039.7693   -623.55293     298531.6    14.785095 
15562500    2051.4142   -603.59436    278419.95     14.59151 
15563000    2051.9329   -603.97471    307600.23    14.489601 
15563500    2094.2241   -607.45183    299677.37    14.504884 
15564000     2248.944   -619.63079     291430.4    14.552784 
15564500    1911.7227   -602.41105    300206.21    14.532838 
15565000    2153.3924   -605.89389     313025.3    14.485928 
15565500     2021.754   -597.78359    315865.53    14.528603 
15566000    1939.7886   -594.36334    304580.08     14.53366 
15566500    2073.6416   -594.84848    308832.38    14.524259 
15567000    1894.9443   -599.38335    300660.34    14.522515 
15567500    1996.0866   -609.24818    297469.26    14.500056 
15568000    1955.2023   -627.23784    286433.37    14.554449 
15568500    1883.2286   -714.18201    294776.89    15.044203 
15569000    1893.1576   -718.36005    289389.58    15.047832 
15569500    2015.2286   -699.82033    284231.01    14.918449 
15570000    1895.7701     -656.477    300363.25    14.853017 
15570500    1878.8913   -610.27637    310380.37    14.825513 
15571000    2041.0163   -740.61421    296825.89    15.732657 
15571500    2005.2897   -728.38082    295738.41     15.59043 
15572000    2004.8333   -681.76591    301742.98     15.34524 
15572500    2011.9351   -695.00546    297260.58    15.499883 
15573000    1986.0582   -695.70795    300439.32    15.586994 
15573500    2037.7291   -611.27684     304685.2    14.948154 
15574000    1930.7491   -702.64764       302269    15.448875 
15574500    1901.4587   -680.47378    297988.96    15.452579 
15575000    1985.1194   -681.69209    299357.51    15.358553 
15575500    1992.6016   -703.40265     302111.7    15.677561 
15576000    2132.4089   -681.48614    299591.67    15.473599 
15576500    2119.4575   -702.33293    300661.34    15.500354 
15577000    1891.4804   -684.16737    300786.11    15.440669 
15577500    1924.4147   -710.43301    297470.36    15.684352 
15578000    2018.8032   -650.19797    302951.26     15.14496 
15578500    1847.0293   -661.49148    296789.21    15.227279 
15579000    2090.3166    -743.9251    304899.73     15.80548 
15579500    1886.9897   -757.87311    302898.99    15.738628 
15580000    1951.7634    -755.3792    299201.42    15.801162 
15580500    1962.0735   -740.51386    298680.89    15.800739 
15581000    1971.7069   -747.42806    302690.43    15.754649 
15581500    2002.6624   -743.47651    304073.95    15.778881 
15582000    1918.7197   -741.10932    298151.64    15.841601 
15582500    1859.1165   -719.46941    297953.24    15.774929 
15583000    1977.6897   -697.08328    298443.84    15.615777 
15583500    2195.4583   -674.77762    304046.32     15.36574 
15584000    2021.6793   -667.13239    296882.21    15.262111 
15584500    1818.4264    -642.4908    295766.71    14.998851 
15585000    2090.4502   -616.50984    318921.56     14.88631 
15585500    2230.2574   -718.23493    300127.99    15.459949 
15586000    2060.1359    -639.3769     301300.8    15.118056 
15586500    1958.4553   -649.10195    301911.47    14.857048 
15587000    1929.0965   -642.35182    304884.79    14.824841 
15587500    1972.5255   -662.31747    306550.12    14.817255 
15588000     2077.636   -679.46669    299950.63    14.788848 
15588500    1955.3609   -684.07443    290989.96    14.880768 
15589000    1990.0623   -684.04626       300829    14.852562 
15589500    2128.4152    -671.3032     295917.9    14.817502 
15590000    2066.0267   -652.25683    304528.87    14.794799 
15590500    2016.5499   -667.71999    293891.29    14.898439 
15591000    2013.3486   -686.26923    297985.42     14.88097 
15591500     2037.257   -683.39067    296534.94    14.859814 
15592000    1787.2547   -669.80718    291980.06    14.843601 
15592500    2070.3758   -709.04073    298536.67    14.929714 
15593000    2071.3725   -699.77682    290454.53    14.910374 
15593500    2109.6867   -678.88128    306279.28    14.776835 
15594000    2040.3147   -689.86968    295565.19     14.90197 
15594500    2071.7578   -658.12738    291696.55    14.673458 
15595000    2185.1565   -639.01345    299966.69    14.601554 
15595500    2065.0268   -644.86791    289597.26     14.57712 
15596000    2042.1326   -645.46902    292285.48    14.565616 
15596500    1955.1312    -644.0101    302691.23    14.542908 
15597000    2026.1486   -641.63798     294978.2    14.564926 
15597500    1966.4836   -708.15609    289219.26    14.957112 
15598000    1902.1026    -738.5411    296472.78    15.230097 
15598500    2168.7093   -705.82494    297448.04    14.973301 
15599000    1782.2726   -741.19608    293377.38    15.234288 
15599500    1859.9988   -711.76156    297502.09    14.991254 
15600000    1904.2546   -751.74865    297767.18    15.340973 
15600500    1935.1687    -765.2833     298735.7    15.455541 
15601000    2186.1392   -782.61711    300457.84    15.548375 
15601500    2121.8966   -750.97545    305232.79    15.429233 
15602000    1970.1398   -749.59317    302767.74    15.480452 
15602500    2044.9385   -777.31754    302397.66    15.613386 
15603000    2189.7719   -795.66757    291511.53      15.7992 
15603500    1962.0764   -741.52938    300028.99    15.299036 
15604000    1980.2555   -756.31923    294471.08    15.244088 
15604500     2044.512   -748.56406    303199.89     15.16513 
15605000    1864.3603   -766.89917    300423.87    15.569895 
15605500    2011.4746   -800.34858    302875.42    15.757571 
15606000    1976.8832   -772.00396    287243.82    15.597539 
15606500    2070.8822   -774.64897     307301.4    15.745384 
15607000    1936.9975   -734.23019     299265.7    15.358058 
15607500    2099.8551   -765.59084    303128.99    15.478914 
15608000    2064.1918   -731.08398    296483.86    15.244814 
15608500    1974.1199   -708.58474    295043.71    15.046315 
15609000    1993.8089    -724.9073    292890.83    15.161639 
15609500    2182.7606   -708.70957    300480.02    15.074529 
15610000    2009.3842   -757.77951    294413.78    15.580501 
15610500    1732.4343   -704.75378    294795.38    15.359394 
15611000    2035.5177   -716.26513    300647.77    15.212158 
15611500    2060.8927     -706.903    300702.27    15.125612 
15612000    1993.2126   -752.12453    302891.86    15.515765 
15612500    1939.9192   -746.46269    302392.63    15.553971 
15613000    2024.7717   -744.37424    305006.49    15.460379 
15613500    2006.9811   -789.58105    298430.82    15.741113 
15614000    1898.3133   -732.59824    298919.84    15.108416 
15614500     1920.187   -607.93106    323065.26    14.484622 
15615000    2051.3736   -728.00285    297481.48    15.161797 
15615500    1962.1449   -710.99542    297426.21    15.123303 
15616000    1800.6671   -701.76292    303004.69    15.158085 
15616500    1918.4466   -719.40604     299970.1    15.245252 
15617000    2163.3273   -703.68608    306215.33    14.999213 
15617500    1852.4097   -710.53171    300621.56    15.098148 
15618000    1939.0301   -732.16683    288994.36    15.221412 
15618500    1998.4582   -672.94552    296018.57    14.788798 
[...]
29848000    2045.6962   -676.92766    303180.78    15.258308 
29848500    2156.9386   -692.01981    300672.62    15.428829 
29849000    2061.8026   -693.18398    303875.34    15.252545 
29849500    1945.6059   -705.42685    300156.06    15.208534 
29850000    1892.8263   -699.41181    300718.73    15.200391 
29850500    2088.4843   -689.50052    300257.64    15.281222 
29851000    2127.9329    -691.4267    296677.33    15.472065 
29851500     2149.318   -688.51639    299636.33     15.40268 
29852000    2003.0296   -631.78865    302971.54    14.966253 
29852500    2085.6785   -693.85932    300601.88    15.558037 
29853000     1986.865   -661.82923    302703.73    15.302583 
29853500    2038.6131   -694.49758    299834.74    15.457809 
29854000    1890.4585    -678.7151    297137.69    15.364396 
29854500    2163.0923   -735.05741    295456.54    15.870914 
29855000    2004.5594   -692.42435    299182.23    15.514631 
29855500    1958.2099   -592.43537    306122.93    14.858974 
29856000    1984.5715   -674.35912    295635.53    15.454704 
29856500     2031.045    -717.2182     300776.4    15.843876 
29857000    2074.4886   -713.37914    297115.86    15.902273 
29857500    1973.0435   -720.94319    298229.07    15.938577 
29858000    1977.8097   -700.48711    302057.43    15.649863 
29858500    2078.9709   -709.64666    303144.17    15.791445 
29859000    1840.4584   -698.86451    295548.36    15.657081 
29859500    2040.6232   -674.75019    304343.44    15.348035 
29860000    1984.9705   -696.39735    299150.74    15.532266 
29860500    1909.8502   -706.91876    301122.49    15.691502 
29861000    2070.1962   -687.60488    300896.24    15.596206 
29861500    2045.9329   -607.33318    299421.15    14.977886 
29862000    1979.9798   -726.31954    298452.72    15.796472 
29862500    2029.1287   -712.27422    301388.76    15.634053 
29863000    1772.6709   -716.18765    297527.32    15.809607 
29863500    1941.1382   -704.58845    298943.13    15.703181 
29864000    2056.3387   -723.49107    300645.22    15.789266 
29864500    2010.4867   -656.15157    302941.49    15.270569 
29865000    2176.7991   -726.70815    303622.57    15.616298 
29865500    1959.2928   -739.78377    299717.24    15.643544 
29866000    1984.6456   -757.92681    300857.87    15.767257 
29866500    2000.1074   -760.62286    300795.41    15.734812 
29867000    1995.5895    -730.4063    306378.29     15.36797 
29867500    1981.3038   -745.06471    301822.87    15.502116 
29868000    2034.9795   -761.73595    303294.71    15.623018 
29868500    1939.4889   -725.87752    306602.84    15.240199 
29869000    2137.0489   -749.26124     301844.5    15.454431 
29869500    1944.4377   -727.78007    306553.72      15.2662 
29870000    2069.9242   -747.43397    299785.97    15.360123 
29870500     2003.407   -743.99494    302282.82    15.356225 
29871000    2072.1666   -722.82953    307197.98      15.2274 
29871500     2006.701   -775.85087    292482.17    15.840092 
29872000     1980.315   -669.20023    294939.27    14.939645 
29872500    2116.6168   -643.52382    300684.67    14.829652 
29873000    1882.9054   -648.03148    302606.35    14.758759 
29873500    1696.1063   -733.18732    297851.68    15.692491 
29874000    1940.5181   -721.64096    299050.04    15.798021 
29874500    2225.8733   -687.16682    299703.16    15.429967 
29875000    1857.9695   -617.61427    303326.38    14.952677 
29875500    1951.0971   -682.89787    299984.01    15.320635 
29876000    2186.8558    -731.0095    305819.94    15.578931 
29876500    1932.9872   -694.44422    296112.78     15.46464 
29877000    2149.8128   -680.68374    301347.45    15.401548 
29877500    2040.9187   -721.64948    299577.48    15.694451 
29878000    1950.8773   -658.82364    302654.41    15.177026 
29878500    1876.1123   -599.42133    315609.49    14.841702 
29879000    2224.4495    -699.8855    303629.83    15.578116 
29879500    2020.5817   -669.49083     301647.9    15.316672 
29880000    1961.8931   -729.70022    293191.15    15.875319 
29880500    1952.4374   -764.57546     292565.8    15.908063 
29881000    2038.9027   -772.23526    284114.88    15.982836 
29881500    1830.1744    -645.8792    295463.72    14.919803 
29882000    1985.2906   -629.71597    297890.73    14.708207 
29882500    2037.8152   -612.35362    297910.47    14.680171 
29883000    1777.1842    -585.3121    308023.51    14.583318 
29883500     2184.087   -722.92212    301128.18    15.329026 
29884000    1903.8793   -744.42569    295633.24    15.574535 
29884500    1887.4382    -709.9731    298172.72    15.181928 
29885000    1867.2865   -758.47764    301472.89    15.580145 
29885500    1925.6663   -731.71856    300389.49    15.378724 
29886000    1710.1814   -600.65188    310555.98     14.57566 
29886500    2045.3507   -687.51239    300500.99    15.088962 
29887000    2122.2363   -734.14982    303943.58    15.306433 
29887500    1924.9134   -760.86394    298748.48    15.635116 
29888000    1900.4965   -720.27822    298064.15    15.303271 
29888500    1910.2885   -705.20478    295867.32    15.282307 
29889000    2125.3491   -728.87672    301294.14    15.264794 
29889500    1857.8483   -739.71561    303202.31    15.457946 
29890000     2002.984   -760.45367    301411.13    15.637737 
29890500    1968.7634   -726.86787    300735.61    15.355495 
29891000     2076.083   -758.69623    303212.85    15.706993 
29891500    1957.8667   -737.05994    301171.96    15.506431 
29892000    1871.4353   -762.38466    298129.92    15.750036 
29892500    2084.0458   -678.32311    302939.15    15.012002 
29893000     1992.751    -635.3062    300111.08    14.751948 
29893500    2007.2073   -700.45357    304538.35    15.209255 
29894000    2076.9929   -766.23359    300351.94    15.832373 
29894500    1911.7244   -736.48418     298316.5    15.761473 
29895000    1882.9627   -744.87596     296730.9    15.842308 
29895500    1819.5101   -739.73342    299190.72    15.787195 
29896000    1878.6531   -735.09722    298487.11    15.864573 
29896500    2090.7924   -675.04812    304936.99    15.285224 
29897000    2177.8607   -683.46516    306410.31    15.390727 
29897500    2142.4549   -666.28689    305710.47    15.298603 
29898000     2103.564   -658.47576    307717.98    15.262326 
29898500    2024.1795   -692.94803    297770.88    15.497581 
29899000    2143.5948    -616.4015    298477.31    14.916778 
29899500    2040.9036   -622.89236    297920.17    14.875541 
29900000    1904.6947   -657.17798    296143.94    15.171353 
29900500    2109.9397   -637.30219     301550.2    15.012103 
29901000    2025.2148    -640.7419    294133.31    15.066694 
29901500    1802.3223   -607.90434    298277.77    14.850368 
29902000    1971.9042   -608.66596    302760.16    14.807522 
29902500    2127.9905   -613.42629    304353.28    14.892344 
29903000    2133.1205   -719.68739    297856.51    15.759187 
29903500    2012.3879   -748.70146    301942.56    15.874692 
29904000    1902.2085   -732.38294    302409.23    15.744223 
29904500    2013.7637   -728.68185    299692.13    15.805862 
29905000    2059.7392   -764.42929    279909.48    16.016199 
29905500    2058.2487   -733.54649     292245.8    15.916834 
29906000    1978.2801   -644.30866    303976.22    15.172033 
29906500    1842.9358   -684.94513    295617.85    15.447231 
29907000    1822.4111   -680.85459     295719.4    15.421646 
29907500     2024.401   -645.17552    298132.86    15.172021 
29908000    1898.8024   -687.61241    295612.91    15.436082 
29908500    2131.7203   -747.59602    298628.82    15.852118 
29909000    2075.6084   -747.39326    303088.12    15.781324 
29909500    1946.4321   -733.04926    302274.87    15.618732 
29910000    1994.1252     -759.141    300036.01    15.882324 
29910500    1834.1759   -626.91833    307742.31    14.854666 
29911000    2151.7836   -591.00649    302135.22    14.611097 
29911500    1835.6653   -574.74862    286509.46    14.573056 
29912000    2108.7648   -550.19339    305087.63    14.568543 
29912500    1829.9095    -560.1953    290693.07    14.572501 
29913000    2070.9843   -558.73227    292136.73    14.633124 
29913500    2107.6834    -560.8318    292856.28    14.659806 
29914000    2017.9605   -547.56075    316894.31    14.543176 
29914500    2017.6732   -593.74333    293137.26    14.659838 
29915000    2025.9446   -629.04142    299390.96    14.893478 
29915500    1929.0995   -710.72754    296376.55    15.790585 
29916000    2012.2776    -693.0234     299720.8    15.665275 
29916500    1920.1887    -676.0083    299742.69    15.207844 
29917000    2085.0348   -667.87414    299146.04    15.173906 
29917500    2038.6727   -691.07092    303950.22    15.346219 
29918000    2078.1713   -701.13672    297276.95    15.417565 
29918500    1918.9435   -687.32431    299620.91    15.434921 
29919000    1874.2771     -677.721    296648.47    15.275225 
29919500    1872.0849   -637.83313    299162.46    15.032504 
29920000    1925.5205   -670.17416    298574.76    15.230274 
29920500    1855.0717   -693.50747    300574.05    15.479279 
29921000    1939.8201   -694.55524    299675.96    15.411142 
29921500    1949.0379   -696.88245    296600.33    15.455019 
29922000    2097.4962   -680.23982    302240.95    15.265025 
29922500    2024.9584   -688.52206     304524.4    15.180837 
29923000     2110.902   -703.49167    301385.73    15.256641 
29923500    2013.6581   -713.31786    294808.84    15.201597 
29924000    1905.1193   -712.12107    294907.58    15.263082 
29924500    1945.8435   -750.86162    297927.11    15.143126 
29925000    1872.9346   -731.91218    305504.58    15.031724 
29925500    1949.7703   -762.83843    299471.33    15.485682 
29926000    2065.4637   -795.02126    281304.62    15.819265 
29926500    1924.6445   -778.60192    281896.29    15.692295 
29927000    2041.9003   -767.37595    300750.15    15.584821 
29927500     1927.594    -748.1091    298290.62    15.433754 
29928000    2023.7144   -734.33247    302107.76    15.280864 
29928500    1890.2294    -602.3662    293857.27    14.718543 
29929000    1911.3697   -642.50835    296459.68    14.994823 
29929500    2093.2637   -661.29127    294172.91    15.137022 
29930000    1940.4974   -655.59734    299191.12    15.123663 
29930500    1911.3048   -671.37488    295522.66     15.21838 
29931000    2057.1775   -666.39225    302764.33    15.208002 
29931500    1946.0447   -720.63269    301891.47    15.483795 
29932000    2235.6001   -740.20255    302361.22    15.650423 
29932500    1818.5466   -730.11174    302185.45    15.721005 
29933000     2008.811   -701.45806    303824.37    15.296635 
29933500     2000.172   -553.76766    364451.88    14.502189 
29934000    1771.8318   -664.49383    297714.25    15.113981 
29934500    2040.3348    -633.8842    300896.73    14.884207 
29935000    1975.7856   -642.10652    306138.25    15.140129 
29935500    2172.0622   -724.23667    300190.86      15.7607 
29936000    2099.5745   -698.22896    303341.86    15.693595 
29936500    2088.2664   -722.51236    298678.67    15.855085 
29937000    2136.9561   -721.13883     302358.7    15.758534 
29937500     1953.622   -736.70314    302613.63    15.923652 
29938000    1973.2903   -706.01369    299845.28    15.587798 
29938500    1919.2642   -604.05307    305949.61    14.903899 
29939000    1969.2731   -611.74399    296789.18    14.982488 
29939500    1991.9924   -622.11268    301133.31    14.925788 
29940000    2056.1832   -761.83269     288179.3    15.911492 
29940500    2013.9234   -767.55428    292477.22    15.804338 
29941000    1953.1995   -762.36694    295006.78    15.858878 
29941500     1970.088   -748.84924    302096.95    15.704427 
29942000    1906.9196   -740.11817    315304.46    15.462705 
29942500    1746.0197   -728.75774    306829.51    15.375832 
29943000    1870.1106   -744.34837    303616.07    15.535219 
29943500    2082.9756   -768.81487    315396.68      15.7891 
29944000    2062.3234   -689.80586    307175.63    15.153499 
29944500    1764.0111   -757.99824     303755.7    15.732721 
29945000    1969.1423   -749.43037    301322.93    15.545013 
29945500    2017.9747   -740.10944    295710.21    15.598872 
29946000    2105.5368   -764.30103    301889.54    15.502802 
29946500    2047.5527   -763.52996     299358.2     15.55415 
29947000    1955.3849   -675.19484     292525.8    14.921894 
29947500    1956.0134   -704.21682    303769.63     15.02473 
29948000    1994.4474   -728.86269    298606.97    15.104412 
29948500    2135.3891   -722.13788    302876.37    15.076996 
29949000    2101.5221   -706.74814    304713.17     15.04205 
29949500    1975.8705   -703.16381    305615.89    15.182053 
29950000    2036.5991   -750.29191     302002.1    15.434538 
29950500     2028.232   -723.36772    301261.35    15.142617 
29951000    2070.1313   -701.25648     293622.8    14.927053 
29951500    1893.6288   -720.92025    292750.54    15.207383 
29952000    2005.0113   -760.81942    302122.01    15.534075 
29952500    1859.8336   -782.51645    294842.76    15.707931 
29953000    1856.8197   -780.71894    302696.68    15.740068 
29953500    2030.0154   -768.31339    300750.77    15.551263 
29954000    1855.9682    -750.2762    300843.41    15.513729 
29954500      2066.08   -756.40827    301145.08    15.445295 
29955000    1972.0564   -746.61356    301237.22    15.307604 
29955500     2220.198   -753.12682    299645.26    15.509877 
29956000    2165.4484   -742.17237    306562.19    15.544833 
29956500    2060.5963   -752.78733    301417.12    15.655788 
29957000    2071.8453   -684.78121     310637.8     15.14556 
29957500    1948.0679   -750.91324    304716.69    15.492673 
29958000    1966.0269   -783.24437    300246.18    15.606538 
29958500    2069.3026   -781.07339    298080.34    15.662988 
29959000    2085.1604   -783.53671    304764.04    15.514746 
29959500    1973.1595   -776.87353    307446.44    15.443076 
29960000    1968.3425   -752.53378       295857    15.245607 
29960500    2031.4202   -745.05531     305979.5     15.15959 
29961000    2003.0893   -760.73969    291666.64    15.184235 
29961500    2060.8129   -781.78031    304383.27    15.463394 
29962000    1984.7498   -743.34633    303447.18    15.397341 
29962500    1925.5719   -785.05402    300194.21    15.639904 
29963000     1845.562   -788.85931    300701.99    15.677271 
29963500    2044.6251   -790.04909    298155.55    15.527322 
29964000    1974.9054   -786.79139    301580.24    15.474571 
29964500    1895.9063   -772.01644    298058.74    15.407682 
29965000    1898.4331   -630.30098     305166.4    14.527067 
29965500    2002.5304   -722.28183    303927.22    15.092286 
29966000     1902.191   -734.23122     299623.6     15.11399 
29966500    1933.3342   -781.98026    304959.17    15.548317 
29967000    2061.5152   -789.62564    301254.34    15.543832 
29967500    1850.6417   -778.60143    303683.15    15.480556 
29968000    1924.5134   -795.57205    294384.39    15.512088 
29968500    1963.0909    -776.2619    305993.79    15.477766 
29969000    2015.0708   -811.43598    280155.25    15.896268 
29969500    2037.3732   -753.06181    299971.78    15.229322 
29970000    1923.3145   -676.36445    305047.47    14.715303 
29970500    2130.7065    -679.8442    310186.59    14.766442 
29971000    1994.7174   -691.98942    313984.89    14.756803 
29971500    1878.3967   -704.71172    295302.89    14.895456 
29972000    1958.5597   -701.68865    315584.24    14.753674 
29972500     1893.131   -695.17297    296172.32    14.852025 
29973000    2021.9388   -694.17379    302380.07    14.965538 
29973500    1888.2848   -656.80325    296775.17    14.734931 
29974000    2247.2524   -784.27016    297752.78    15.678771 
29974500    2104.5061   -756.81869    302943.27     15.43921 
29975000    1986.1847   -754.09198    302281.96    15.489888 
29975500    1997.2137   -750.37159    295032.67    15.506527 
29976000    1880.8023   -725.04774    296824.78    15.298042 
29976500    1872.9658   -758.08507     292100.2    15.264182 
29977000    1979.2198   -763.53229    296086.71    15.365297 
29977500    2048.4711    -769.6067    299544.32    15.604132 
29978000    2027.7389   -681.16315    303544.67      14.9405 
29978500    2089.9218   -731.92414    296853.28    15.200908 
29979000    2018.9033   -735.29895    299933.23    15.187411 
29979500     2144.769    -737.3748       309759     15.08701 
29980000    1943.3423   -775.24229    294571.93    15.534417 
29980500    2022.0938   -653.76994    315608.21    14.694467 
29981000    1961.0889   -599.77594    305370.59    14.537035 
29981500    1991.5967   -639.00465    297078.39    14.556257 
29982000    1914.3605   -652.27893    288585.58    14.580405 
29982500    1761.6536   -637.94493    308560.55    14.514615 
29983000    1990.8397   -625.93105    295016.52    14.514003 
29983500    1957.7437   -641.69017    306278.21    14.652781 
29984000    2207.7545   -771.83998     301559.2    15.602146 
29984500     2169.948   -739.70903    303536.99    15.337211 
29985000    1759.6258   -753.78202    300337.86    15.528079 
29985500    2020.2824   -778.28321    291246.84    15.659391 
29986000    1952.7408   -769.29598    296139.67    15.422277 
29986500    2141.4536   -655.37411    314198.14    14.682612 
29987000    1904.1626   -764.25667     300860.9    15.429782 
29987500    2078.7892   -746.54792    307527.68    15.429892 
29988000    2052.0377   -753.24725    295934.84    15.461253 
29988500    1968.4704   -719.74166     298573.1    15.146116 
29989000     2184.245   -674.37113    298714.14    14.833356 
29989500    2057.3362   -716.31702    304145.79    15.105611 
29990000    2037.1143   -655.50585    302112.05    14.688684 
29990500    2007.2878   -767.88413    296639.57    15.355946 
29991000    2065.1016   -757.16745    294589.68    15.248993 
29991500    2045.4876   -750.80145    299221.44    15.174332 
29992000    1945.5175   -749.27887    302212.26    15.175416 
29992500    1978.4049   -689.30475     300343.3    14.819092 
29993000    1945.8452   -721.44313    295812.81    15.040417 
29993500    1985.1758   -745.87038    298829.59    15.245321 
29994000    1977.1842   -728.39999    305824.93    15.110895 
29994500    2014.8066   -758.08096    293214.86    15.217364 
29995000    1966.4847    -748.4824    301037.74    15.226423 
29995500    1888.2151   -767.22113    296191.13    15.571562 
29996000    1864.7331   -714.44266    308552.54    14.990661 
29996500    1920.9555   -675.42371    281162.78    14.831939 
29997000    2077.2204   -667.33251    294832.42     14.83749 
29997500    2272.5702   -667.75772    302922.13    14.784631 
29998000    2083.0106   -723.02165    290491.96    15.296549 
29998500    1895.0222   -701.10813    304528.58    15.098267 
29999000    2049.5393   -794.63335    278316.67    15.842778 
29999500    1981.4168   -721.11887    293831.45    15.199975 
30000000    2017.0314   -683.10023     297170.3    14.914285 
Loop time of 60234.7 on 6 procs for 15000500 steps with 256 atoms

Performance: 43.033 ns/day, 0.558 hours/ns, 249.034 timesteps/s
99.3% CPU use with 6 MPI tasks x no OpenMP threads

MPI task timing breakdown:
Section |  min time  |  avg time  |  max time  |%varavg| %total
---------------------------------------------------------------
Pair    | 3894.9     | 4007.5     | 4187.8     | 193.7 |  6.65
Neigh   | 110.34     | 111.25     | 112.24     |   7.0 |  0.18
Comm    | 905.03     | 1092.7     | 1203.5     | 383.0 |  1.81
Output  | 374.63     | 374.66     | 374.75     |   0.2 |  0.62
Modify  | 54586      | 54595      | 54605      |   2.7 | 90.64
Other   |            | 53.66      |            |       |  0.09

Nlocal:    42.6667 ave 49 max 33 min
Histogram: 1 1 0 0 0 0 0 1 2 1
Nghost:    1214.67 ave 1262 max 1179 min
Histogram: 2 0 1 1 0 0 0 0 0 2
Neighs:    3892.67 ave 4615 max 2930 min
Histogram: 1 0 1 0 0 0 1 1 1 1

Total # of neighbors = 23356
Ave neighs/atom = 91.2344
Neighbor list builds = 751621
Dangerous builds = 1

write_data	data.final
Total wall time: 16:44:00
