LAMMPS (8 Feb 2019)
Processor partition = 0
echo both

include		in.partitions
variable p_id world   0 1 2 3 4 5
include		in.temp
variable	temperature equal 2000.
variable	tempDamp equal 0.1 # approx 0.1 ps
include		in.pressure
variable	pressure equal 300000.
variable	pressureDamp equal 1.0
include 	in.seed
variable	seed world 74581 93734 128321 21934 495716 871038
units		metal
include		in.box
read_data	data.equil.${p_id}
read_data	data.equil.0
  orthogonal box = (0.192254 0.192254 0.192254) to (15.9917 15.9917 15.9917)
  1 by 2 by 3 MPI processor grid
  reading atoms ...
  256 atoms
  reading velocities ...
  256 velocities

variable 	mass equal 26.981539
mass            1 ${mass}
mass            1 26.981539
include 	in.setup
variable	out_freq equal 500
variable	out_freq2 equal 500

neigh_modify    delay 10 every 1
include		in.al
### Argon Potential Parameters ###
pair_style 	eam/alloy
pair_coeff 	* * Al99.eam.alloy Al

timestep	0.002 # According to Frenkel and Smit is 0.001

thermo          ${out_freq}
thermo          500
thermo_style 	custom step temp pe press lx


restart 	${out_freq} Restart.lmp.${p_id} Restart2.lmp.${p_id}
restart 	500 Restart.lmp.${p_id} Restart2.lmp.${p_id}
restart 	500 Restart.lmp.0 Restart2.lmp.${p_id}
restart 	500 Restart.lmp.0 Restart2.lmp.0



# NPT

include		in.dump
dump            myDump all atom ${out_freq2} dump.al.${p_id}
dump            myDump all atom 500 dump.al.${p_id}
dump            myDump all atom 500 dump.al.0
dump            myDcdDump all dcd ${out_freq2} out.${p_id}.dcd
dump            myDcdDump all dcd 500 out.${p_id}.dcd
dump            myDcdDump all dcd 500 out.0.dcd
dump_modify	myDump append yes
dump_modify     myDcdDump append yes


timer 		timeout 23:50:00 every 1000
New timer settings: style=normal  mode=nosync  timeout=23:50:00

fix             1 all plumed plumedfile plumed.start.dat outfile plumed.out.${p_id}
fix             1 all plumed plumedfile plumed.start.dat outfile plumed.out.0
fix             2 all nph iso ${pressure} ${pressure} ${pressureDamp}
fix             2 all nph iso 300000 ${pressure} ${pressureDamp}
fix             2 all nph iso 300000 300000 ${pressureDamp}
fix             2 all nph iso 300000 300000 1
fix             3 all temp/csvr ${temperature} ${temperature} ${tempDamp} ${seed}
fix             3 all temp/csvr 2000 ${temperature} ${tempDamp} ${seed}
fix             3 all temp/csvr 2000 2000 ${tempDamp} ${seed}
fix             3 all temp/csvr 2000 2000 0.1 ${seed}
fix             3 all temp/csvr 2000 2000 0.1 74581
fix		4 all momentum 10000 linear 1 1 1 angular

run             15000000 upto # 30 ns
Neighbor list info ...
  update every 1 steps, delay 10 steps, check yes
  max neighbors/atom: 2000, page size: 100000
  master list distance cutoff = 8.28721
  ghost atom cutoff = 8.28721
  binsize = 4.1436, bins = 4 4 4
  1 neighbor lists, perpetual/occasional/extra = 1 0 0
  (1) pair eam/alloy, perpetual
      attributes: half, newton on
      pair build: half/bin/atomonly/newton
      stencil: half/bin/3d/newton
      bin: standard
Per MPI rank memory allocation (min/avg/max) = 4.002 | 4.065 | 4.377 Mbytes
Step Temp PotEng Press Lx 
       0    2414.0258   -736.96035    191436.69    15.799491 
     500    1931.0099   -714.55829    281773.35     15.37643 
    1000    1905.6309   -709.53663    291072.23    15.325824 
    1500    1950.3737   -704.30155    304826.44    15.258867 
    2000    1928.3666   -710.94581    296775.34    15.285011 
    2500    2242.3802   -701.25097     308051.5    15.244149 
    3000    2060.8671   -712.36924    295572.34    15.258727 
    3500    1922.4142   -726.80162    283091.48    15.383855 
    4000    1937.8837   -694.06167    309967.32    15.163613 
    4500    1864.8792   -716.98741    290299.49    15.355325 
    5000    2048.1226    -708.8384    303101.01    15.205407 
    5500    2159.5841   -686.17668    310098.73    15.186285 
    6000    1912.2071   -697.62901    299656.93    15.182351 
    6500    2183.6368   -674.36759    330046.52    15.055428 
    7000     1805.692    -701.3907    288118.29    15.194757 
    7500     2075.866   -721.10959    300206.34    15.358809 
    8000    2192.0003   -699.36058    301003.52    15.165069 
    8500    1999.6926    -687.4967    321301.52    15.049791 
    9000    1962.5969   -705.86843    299044.46    15.188902 
    9500    2114.7766    -717.1149    300085.02    15.223963 
   10000    1967.2125   -694.87645    301877.62    15.147697 
   10500    1961.1077   -705.25692    300440.32    15.113077 
   11000    2121.5798   -693.12427    316193.89    14.955873 
   11500    1998.8867   -708.30661     314120.6    14.945152 
   12000    1995.8753   -714.33253    303310.92    14.972884 
   12500    1924.7405    -707.5445    300926.02    14.952631 
   13000    2008.8226   -699.50103    297043.97    14.968531 
   13500    1881.9377   -684.67603    319706.56    14.985561 
   14000    1991.6718   -710.55186     293959.3    15.179408 
   14500    1993.9892    -707.7543    293955.68    15.222341 
   15000    1993.2133   -695.84255    300729.19    15.060489 
   15500    1945.3807   -695.31098    302156.58    14.989262 
   16000    1844.4191   -691.32759    325997.76    14.885902 
   16500    1773.3216     -714.774    278333.72    14.989302 
   17000    2007.7494   -691.03584    293155.93    14.991631 
   17500    2087.5317   -697.29004     302103.9    14.925351 
   18000    2030.8166   -694.84485    293893.26    14.983293 
   18500    1891.7215   -691.88866    295759.65    15.034004 
   19000    1988.1375   -691.44631    297972.88    15.053126 
   19500    1931.4886   -682.09382    301065.01     15.03773 
   20000    1951.8455   -690.58511    292070.34     15.06216 
   20500    2180.7348   -728.47123    303994.88    15.350029 
   21000    2210.5431   -760.72847    301934.21    15.526034 
   21500    2029.7506   -746.06968    300874.53     15.48257 
   22000    2081.7388   -750.34554    307889.47    15.457437 
   22500    2025.7233    -724.6202    307927.02    15.312056 
   23000    2044.2508   -735.31444    302553.53     15.37746 
   23500    1959.0357   -741.64404    294416.28    15.483397 
   24000      1896.77   -738.12999    308900.62    15.416454 
   24500    2043.0209   -746.20199    280809.62    15.562043 
   25000    2102.7755     -684.168    295137.92    15.063311 
   25500    1933.7051   -673.04395    306561.55    15.029737 
   26000    1994.2051    -683.3985    294744.01    15.028222 
   26500    1761.5259   -730.94726    297692.19    15.410859 
   27000    1859.5235   -675.68723     300446.3    15.040339 
   27500    1909.7986   -689.94395     299765.9    15.103101 
   28000    1922.0565   -673.60154    297180.21    15.033741 
   28500    2062.9496   -747.20695    274382.88    15.582666 
   29000    2044.8954     -756.393    285217.67     15.56429 
   29500    2011.8912   -767.57457    275646.58    15.594303 
   30000    1857.6102   -760.56964    300400.01    15.529928 
   30500    1862.6598   -740.66613    301700.92    15.470193 
   31000    1912.7763   -739.60389    288755.93    15.535822 
   31500    1972.2353    -734.9477    311568.23    15.483067 
   32000     2024.579    -732.9368    309757.01    15.550325 
   32500    2008.8823   -740.54235    291275.32    15.615447 
   33000    2040.7016   -735.62196    289909.58    15.613727 
   33500    2070.1148   -748.44157    291606.69    15.609574 
   34000    1995.2678   -739.83447    290348.85    15.620793 
   34500    2015.4075   -742.29132    287113.55     15.63023 
   35000    1960.8712   -743.13223    299098.16    15.578378 
   35500    1920.8765   -737.32725    299003.64    15.565535 
   36000    2053.2576   -738.33574    307940.57    15.520259 
   36500    1928.1376   -730.81853    314812.17    15.476574 
   37000    1838.8507      -727.87    309186.54    15.523665 
   37500    2263.1834   -741.10408       306376    15.541056 
   38000    2014.6808   -738.23824    296622.16    15.597054 
   38500    2061.0331   -733.20628    288486.85    15.606124 
   39000    1987.7596   -742.35602    293421.15    15.612057 
   39500    2097.0638    -744.8743    275131.57    15.642588 
   40000     2073.407   -740.91006    287010.03     15.60854 
   40500    2145.8426   -737.66289    308690.43    15.544952 
   41000    2029.0003   -741.29207    298205.47    15.549867 
   41500    1835.1385   -743.93742    303137.73     15.53303 
   42000    1989.5876   -741.81532     303312.9    15.512301 
   42500    1941.6361   -732.19315    309095.99    15.491104 
   43000    1999.8707   -726.87059    308257.07    15.460584 
   43500    2199.2857   -739.28729    306903.54    15.519426 
   44000    2219.7413   -742.72052    296296.39    15.582265 
   44500    1795.0541   -742.46987    294096.49    15.551078 
   45000    1964.9458   -741.88618    297428.12    15.563382 
   45500      1867.11   -739.44209    298058.12    15.548887 
   46000    2101.9977   -737.14096    289256.09    15.591561 
   46500    2103.9131   -736.21191    300065.08    15.537079 
   47000    1907.3124   -735.58907    297991.06    15.493442 
   47500    2024.6793   -725.52158    296452.13    15.348445 
   48000    1862.8691   -704.80262     304077.7    15.226798 
   48500    2003.6496   -744.74591    294479.59    15.511025 
   49000    1999.0704   -749.01034    292266.67    15.560152 
   49500    1870.2452   -676.31775    296464.29     14.91129 
   50000    1948.0386   -680.92201    292216.59    14.926752 
   50500     1986.461    -678.8707     288287.2    14.886218 
   51000    2124.5821   -678.65908    287519.67    14.920624 
   51500      2004.43   -690.50123    292383.64    14.879138 
   52000    1980.2886   -656.93047    314404.12    14.865218 
   52500      1994.55   -676.04351    302589.07    14.825085 
   53000    1981.4672   -681.70584    291572.87    14.880588 
   53500    2165.9096    -682.6298    298915.79     14.85466 
   54000    2034.6294    -676.0156    295006.84    14.839198 
   54500    1840.7965   -673.01687    299961.03    14.823948 
   55000    2111.8234   -668.38505    304850.06    14.828254 
   55500    2048.8811   -667.71548    300862.85     14.85255 
   56000    2134.3833   -669.98671    305603.63    14.844205 
   56500    2092.8472   -688.59364    292159.07    15.014907 
   57000    2171.0828   -668.25688    312558.72    14.794057 
   57500    2058.0485   -691.46921    291017.45    14.866053 
   58000    1911.7689   -683.44991    305773.57    14.802393 
   58500    1963.9486   -688.53887    292943.48     14.85828 
   59000    1841.8859   -707.65436    292004.06    14.942326 
   59500    1995.1954   -708.58289    301656.47     14.92896 
   60000    2006.3811   -717.27551    299978.28     14.95654 
   60500    1987.5031   -733.12759    282698.08    15.051299 
   61000    1966.4493   -711.17531    297402.15    14.934013 
   61500    1985.1765    -722.1931    308431.74     14.91612 
   62000    2146.3765   -732.45429     281256.2    15.071324 
   62500    1848.9297   -702.01718    295300.44    14.908395 
   63000    1998.9885   -691.62799    302417.45    14.834193 
   63500    2025.2811   -686.81855    305883.24    14.802367 
   64000    1995.7141   -711.42025    308060.39    14.897232 
   64500    1920.5859   -726.81882     290707.2    15.014005 
   65000     2057.924   -723.36388    303696.77    14.957021 
   65500    2054.2041   -672.17102    323962.49    14.737699 
   66000    2036.2084   -704.35314    308147.74    14.864088 
   66500    1934.4923   -710.07388    299555.13    14.901087 
   67000    1929.9396   -711.13326    308945.72    14.888493 
   67500    1865.5118   -692.34726    294728.71    14.831944 
   68000    2197.8184   -674.95988    301323.77    14.863163 
   68500    2008.1536   -666.23425    298221.05    14.845154 
   69000    1997.0645   -665.97819    294819.89     14.83806 
   69500    2225.8216   -665.86104    308954.63    14.783221 
   70000    2066.5985   -686.61398    297773.15    15.002072 
   70500    1874.0855   -702.63589    299024.94    15.150213 
   71000    1893.2792   -704.71498     301541.5    15.124591 
   71500     2015.789   -705.88553     296778.7    15.083676 
   72000    1982.2641   -689.37076    290522.33    14.910745 
   72500    1875.9963   -672.57738    293205.39    14.877217 
   73000    2184.4879     -663.507    303559.66    14.815264 
   73500    1972.8883   -655.61757    299699.23    14.802228 
   74000      2242.19   -667.38265    299714.74    14.845683 
   74500     2032.663   -661.13728    296983.47     14.87816 
   75000    2081.5421   -657.07191    305349.49    14.826356 
   75500    1959.2039   -751.61966    302776.64    15.524831 
   76000    1966.9808   -727.75457    300148.46    15.351515 
   76500    1999.6862   -720.77411    296204.31    15.302085 
   77000    2077.5404   -717.18714    301411.78     15.21905 
   77500    1825.9226   -695.68916    303830.75    15.053992 
   78000    2078.7718   -719.43368    295163.25    15.390516 
   78500    2060.0943   -731.89619    301320.05    15.426374 
   79000    1953.7406   -735.79674    302434.89    15.439419 
   79500    2064.9688   -703.61163    307378.74    15.212934 
   80000    1953.9301   -701.25946    311422.06    15.269209 
   80500     2127.996   -730.57173    295106.58    15.455004 
   81000    2035.2305   -722.16011    298331.41    15.364783 
   81500    1959.8066   -730.52493    298879.76    15.462906 
   82000    1955.2799   -745.94411    297335.03    15.537835 
   82500    1871.2971   -704.72467    298970.77    15.216013 
   83000     2147.017   -698.52919    302108.82    15.228304 
   83500    1957.8304   -705.92193    291968.68    15.302353 
   84000    1991.3188   -700.56385    304441.97     15.20499 
   84500    1842.1379   -692.70424    300558.17    15.271621 
   85000    2075.8288   -697.16226    283914.41    15.367262 
   85500    2120.1696   -682.46256    291833.09    15.382244 
   86000    1973.1401   -686.97259    312781.16    15.264372 
   86500    1989.6451   -700.09071    282936.56    15.336944 
   87000    2219.1655   -687.27543    303056.56    15.317482 
   87500    1992.6339   -684.72061    308364.72     15.30818 
   88000    2122.5561   -679.52585     306849.8    15.353617 
   88500    1823.4814   -692.79678     284400.9    15.384072 
   89000    2058.0279   -680.37485     319711.9    15.265938 
   89500    2019.2351   -692.50346     298721.1    15.283123 
   90000     1884.011   -688.68366    292045.71    15.345751 
   90500    1962.1938   -679.44083    293565.98    15.387664 
   91000    2019.5821   -682.20872    302907.37    15.321041 
   91500    1879.1687   -702.68219    299296.17     15.25595 
   92000     1882.634   -692.40957    293472.72    15.319775 
   92500     1994.645   -685.93349    301365.38    15.334361 
   93000    2150.3482   -698.09826    291374.73    15.301764 
   93500    1813.8544   -682.96322    308948.71    15.286546 
   94000     1956.296   -685.28249    313017.89    15.272538 
   94500    2076.4316   -693.37727    297230.17    15.299432 
   95000    2120.5425   -689.99072    306359.43    15.257074 
   95500    2077.2219   -690.82001    296008.85    15.313634 
   96000     2036.305   -684.35636    293802.15    15.342032 
   96500     2021.454   -692.36199    287527.34    15.347255 
   97000    2099.8111   -687.15484    295459.62    15.323442 
   97500    1984.8563   -693.48017    288254.09    15.339223 
   98000    2069.1876   -692.63391    288874.41    15.337606 
   98500    2180.2714   -692.60204    293280.81    15.333642 
   99000    1930.5894   -688.79617    292273.82     15.32517 
   99500    1984.9208   -683.57073    297915.91    15.341038 
  100000    1982.1044   -688.76947    275109.15    15.435786 
  100500    1809.9126   -687.68462     289653.7    15.357123 
  101000    1927.3461   -689.71931     303473.9     15.28344 
  101500    1988.4488   -644.58398    286776.25     14.98379 
  102000    1937.5677   -626.14479    279665.15    14.787883 
  102500    1935.2988   -615.38425     306856.1    14.772367 
  103000    2158.9573   -631.43357    259525.96    14.841738 
  103500    1839.5706   -620.74923    286332.27    14.774541 
  104000    1943.1104   -618.27338    291751.31    14.770047 
  104500    2093.3799   -618.94533    294247.34    14.796145 
  105000    1922.0677   -619.27516     294631.6    14.783382 
  105500    2066.3607      -632.91    275062.95     14.81942 
  106000    1960.3451   -621.72414    274849.65    14.808003 
  106500     2047.536   -621.19679    288233.26    14.774991 
  107000    1899.2121   -613.40015    306027.47    14.764129 
  107500    1824.3557   -614.74211    288643.12    14.797877 
  108000    2068.5276   -618.83206    278041.83    14.894003 
  108500    2010.1367   -611.45062    308160.47    14.767619 
  109000    1907.6241   -620.45949    273410.89    14.843472 
  109500     2057.509   -612.63686       340980    14.731722 
  110000    2017.2716     -622.727    308190.25    14.760553 
  110500    2127.3159   -623.57839    299210.27    14.764497 
  111000    1895.8966   -614.22259    312381.12    14.744395 
  111500    1940.5669   -619.03075    286151.03    14.801234 
  112000    1917.4889   -613.82605    283902.96    14.808346 
  112500    1986.3192   -625.74835    288177.16    14.821767 
  113000     1998.905    -615.9108    302302.71    14.768369 
  113500    2012.4332   -604.63306    320509.15    14.743358 
  114000    1978.3929   -620.45459    294695.95     14.77206 
  114500     1932.706   -613.47959    294336.38    14.773595 
  115000    2267.4532   -617.18834    290522.44    14.789937 
  115500    2093.0457   -614.56516    293484.21    14.798619 
  116000    2007.6718   -615.62725    315339.04    14.780907 
  116500    2045.9063   -633.27493     295492.3    14.783313 
  117000    2006.8169   -635.32936    292694.14    14.775169 
  117500    1923.6414   -635.34084    310810.41    14.717947 
  118000    2026.9834   -632.46514    305492.83    14.768291 
  118500    1814.6487   -628.17297    280869.28    14.762215 
  119000    2016.2103   -636.72961    295793.98    14.755756 
  119500     2065.359   -645.56394    283678.17    14.874512 
  120000    2064.4011   -645.52497    297932.24    14.784883 
  120500    1961.1811   -637.10676    297557.95    14.760488 
  121000    2098.8586   -644.55754    290951.26    14.804744 
  121500    1985.9492   -632.22388    297723.28    14.803103 
  122000    2041.5479   -613.03577    324302.13    14.728263 
  122500    2141.6193   -689.19874    317215.17    15.205523 
  123000    1957.3477   -689.84164    307832.85    15.254609 
  123500    2048.0287   -676.48607    310768.51    15.261572 
  124000    2109.0489   -686.20699    313106.01    15.233179 
  124500    1856.9252   -686.33653    301336.28    15.261158 
  125000    2007.2772   -703.59925    285368.68    15.324696 
  125500    2083.2416   -681.86785    296505.18    15.383551 
  126000    2185.7646   -688.60598    291537.18    15.347732 
  126500    2072.5616   -681.23433    314857.96    15.233702 
  127000    2098.1879   -684.47092    306270.79    15.278058 
  127500     1983.121   -682.57476    308704.23    15.235128 
  128000    1995.6607   -695.46311    296661.68    15.273376 
  128500    2051.6021   -685.85527    290876.37    15.365593 
  129000     1888.235   -686.09437    296109.27    15.349993 
  129500    1962.2758   -687.45886    304814.84    15.295955 
  130000    1877.2579   -686.46915    309258.85    15.222072 
  130500    2100.8195   -686.10586    297730.47    15.291523 
  131000    1879.8883    -686.2704    299084.97     15.26891 
  131500    1950.2843   -697.00215    294317.68    15.258028 
  132000    1811.0078   -705.09838    289879.82    15.216157 
  132500    2110.2184   -684.23779    303842.63    15.282583 
  133000    2021.3801   -692.95236    296632.51    15.319847 
  133500      2155.16   -696.09805    297449.69      15.2986 
  134000    2037.3238    -704.1359    292685.37    15.264691 
  134500    1959.6014   -703.23268    290142.19    15.269866 
  135000    1981.4136   -693.90535    303884.77    15.156242 
  135500    1944.3779   -700.28971    300597.25     15.19608 
  136000    2176.4519   -702.80176    299425.71    15.274635 
  136500    1965.6219   -709.41074    295848.85    15.209536 
  137000    2084.4524    -704.3384    303551.66    15.151975 
  137500    1840.3335   -702.78198    295478.68    15.252481 
  138000    2046.4207   -666.84791    296776.41    14.876526 
  138500    2080.9016    -723.0698     304699.3    15.157153 
  139000    1967.7138   -722.69711    292822.67    15.292211 
  139500    1837.1506     -707.932    308763.79    15.069024 
  140000    1993.4068   -712.04089    306629.57    15.088638 
  140500    2192.2001   -711.55649    306386.05    15.110913 
  141000     1981.148   -713.74217    300387.07    15.142336 
  141500    2014.9943   -732.03033    291556.57    15.223414 
  142000    1918.0055   -716.73681    298941.65    15.152247 
  142500    2013.8923   -686.33035    302928.82    15.044596 
  143000    2121.5092   -697.82015    300654.11    15.110825 
  143500    1837.2703   -680.73852    302414.18    14.931312 
  144000    1919.2778   -727.72748    293559.15    15.350016 
  144500    2031.3178   -695.86238    294784.22    15.122679 
  145000    2110.9513   -708.77938    302497.94    15.181164 
  145500    2128.2236    -685.5924    304270.99    15.007997 
  146000    1958.6247   -692.91549    302345.49    15.056681 
  146500    1975.0919   -675.09064    303707.42    14.934674 
  147000    1911.1966   -707.85617     298647.2    15.138565 
  147500    1941.1274   -688.17022    299247.21    15.029911 
  148000    1900.2915   -689.98088    302502.38    14.981337 
  148500    2038.6546   -647.10417     311763.5     14.76961 
  149000    1944.3539   -659.70389    328255.96    14.640326 
  149500     2046.411   -667.31957    300318.96    14.681408 
  150000     1773.935   -665.65163    296293.14    14.692579 
  150500    2025.0266   -666.55475    301157.51    14.681407 
  151000    1941.0584   -673.41767     282517.2     14.71947 
  151500    1997.9374   -649.13368    333231.48    14.655315 
  152000    2033.1397   -664.67626    288295.06    14.720254 
  152500    2062.0876   -655.33388    332463.43    14.647059 
  153000    2022.2571   -670.05538       289075    14.710108 
  153500    1924.8802   -663.36441    301160.65    14.688302 
  154000     1882.176    -664.3614    283585.19    14.718254 
  154500    1876.2505   -665.22178    308822.89    14.661501 
  155000    2038.2532   -664.97849    300561.24    14.686755 
  155500    2073.7702   -658.58029    317851.14    14.664832 
  156000    1938.9823   -676.19997    284321.09    14.716773 
  156500    2068.2246   -665.08151    303925.98    14.688102 
  157000    2072.4963   -683.27145    279760.55    14.765564 
  157500     2002.164   -649.46486    323795.16    14.653951 
  158000    1933.9657   -671.30224    297595.64    14.692524 
  158500    1876.5286   -663.40861    308112.91    14.674726 
  159000    2124.6016   -658.99832    292616.99    14.727404 
  159500    1755.3689   -647.49384     328887.7    14.648496 
  160000    1944.5908   -680.63936    285553.18    14.767276 
  160500    1992.7474   -667.93737     293054.3      14.6997 
  161000    2131.0626   -665.22408    295166.08     14.69615 
  161500    2324.9798   -659.02916    312396.47    14.682692 
  162000    2134.3254   -668.45483    291276.71    14.708649 
  162500    2084.4976   -664.48571    304187.02    14.681766 
  163000    1963.7753      -664.39    291215.95    14.750243 
  163500    2031.2732   -653.51582     329726.7    14.644142 
  164000    2054.4049   -671.45714    272139.42     14.75003 
  164500     1927.521   -663.71198    311064.71    14.671118 
  165000     2128.045   -675.45637    300019.01    14.688835 
  165500    1895.6045    -665.9507    293933.26    14.700838 
  166000    1867.5958   -635.63895    326045.79    14.677397 
  166500    1918.8591   -654.27383    308118.73    14.687825 
  167000    1816.3278   -667.80335    288152.31    14.723432 
  167500    2030.9499   -657.00599    296256.72     14.69446 
  168000    1958.3709   -656.08601    298025.07     14.69095 
  168500    2128.4452    -670.7664    294754.94     14.70893 
  169000    1977.5942   -659.32594    312381.71    14.669779 
  169500    2138.0001   -663.05028    297989.82    14.691896 
  170000    1950.0817   -656.91783    305596.75    14.677467 
  170500    2031.0984   -667.12243    297964.89     14.68759 
  171000    2054.9888   -658.96544    293846.79    14.716699 
  171500    1986.7415   -642.17149    309703.95    14.726611 
  172000    2051.0005   -656.23471    288114.71    14.749043 
  172500    2005.8662    -658.6071    283557.75    14.750556 
  173000    2021.8637   -653.11851    289765.89    14.755519 
  173500    2122.8887   -697.45307    297658.57     15.14097 
  174000    2025.1956    -684.9749     298979.5    14.983197 
  174500    2022.1996   -701.20661    302993.55    15.087686 
  175000    1981.7252   -711.82511    307596.33    15.116102 
  175500    1935.6371   -708.70525    306076.89    15.099028 
  176000     1909.603   -701.42786    309208.81     14.99494 
  176500    2197.9852   -661.04857    304317.99    14.684524 
  177000    1981.1623   -672.44889    293973.49    14.718651 
  177500    1943.6249   -659.05108    300152.63    14.699218 
  178000     2013.261   -662.29211    306681.49    14.673867 
  178500    2081.8252   -664.30301    294331.06    14.715828 
  179000    2206.6683   -676.05042    291664.67     14.75002 
  179500    2043.9775   -643.39823    312345.15    14.714486 
  180000    2149.3472   -677.23272    295940.45    14.960295 
  180500    1922.4229   -674.93454    300478.75    15.008209 
  181000    1906.8249    -741.9892    302579.64    15.619674 
  181500    2224.4392   -685.25755     306474.2    15.128962 
  182000     2047.595   -687.72029    303827.93    15.055016 
  182500    1928.1139   -703.72571    298736.07    15.125953 
  183000    2011.8829   -701.68864    297792.65    15.112767 
  183500    2130.1994   -695.10171    301491.02    15.008479 
  184000    1899.1962   -705.92771    298331.52     15.10175 
  184500    2109.4997    -647.0457    310253.98    14.694593 
  185000    1996.4966    -644.6849    305127.98    14.754091 
  185500    1956.4915   -651.49573    302164.51    14.836192 
  186000    1888.3972   -636.96226    338249.73    14.624483 
  186500    1828.3438   -674.64355    288279.67    14.738621 
  187000    2143.6618   -671.57996    291490.21    14.710528 
  187500    1957.9033   -655.33234    297905.97    14.722036 
  188000    1935.0928   -658.78292    301883.04    14.783334 
  188500    1928.1966   -669.76176    296572.58    14.936537 
  189000    1995.6938   -762.47697    297835.76    15.697205 
  189500    1988.9998   -749.58714     301731.2    15.658972 
  190000     2171.477   -746.78799    306262.89      15.6258 
  190500    1865.3672   -695.92052    301836.54    15.172062 
  191000    2064.2159   -728.13192    298592.97    15.333639 
  191500     1919.718   -723.39265    294646.88    15.312925 
  192000    1886.0202   -644.58251    296221.98    14.797686 
  192500    2018.2066   -700.51615    298475.79    15.141001 
  193000    1938.0804    -668.3398    303383.87    14.919546 
  193500    1896.5258     -760.091    301763.44    15.605429 
  194000    1982.4085   -695.06383    301842.15    15.101611 
  194500    1997.9013   -698.66874    295597.44    15.188897 
  195000    2244.8017   -688.60862    302449.21    15.163689 
  195500    2128.2195    -686.3943    317952.51    14.990944 
  196000    1946.2984   -678.41344    310336.79    14.966785 
  196500    1981.3479   -697.97317    294329.88     15.07216 
  197000    1910.9624   -700.46146    280216.16    15.176609 
  197500    1925.4631   -685.25989    294073.74    15.096412 
  198000     1814.511   -684.20171    312350.86    14.937461 
  198500    1963.9562   -683.32537    308100.52     14.94477 
  199000    1938.8164   -681.52233    300634.21    14.990206 
  199500     2084.285   -702.01953    296914.69    15.243086 
  200000    2077.7162   -720.09074    295035.33    15.319343 
  200500     1950.775   -708.18402    294733.74    15.234108 
  201000    2023.3222   -690.62763    300612.35    15.153563 
  201500    2072.5494   -750.28553    297891.92    15.717166 
  202000    1946.6954   -701.06296    293215.61    15.354489 
  202500    2091.4587   -689.09133     302578.8    15.276449 
  203000     2143.861   -689.95854     299811.2    15.227535 
  203500    2075.0177   -690.61819    302680.25    15.249332 
  204000    2092.2396    -687.3359    298693.77    15.229422 
  204500     2098.535   -656.37565    304565.36    14.923149 
  205000    2069.2411   -694.87363    302552.01    15.176332 
  205500    1918.9496   -673.44069    300522.36    15.133366 
  206000    1882.0611   -684.82799    306399.09    15.163548 
  206500    2028.1661   -681.45279    307542.47     15.09736 
  207000    1928.3818   -694.40148    296676.86     15.27916 
  207500    1941.6727   -714.64148    293979.26    15.233197 
  208000    1933.3363   -674.45729    298777.15    14.894394 
  208500    1841.2358   -708.70165    295356.22    15.148261 
  209000    1987.0577   -708.54074    296662.17     15.22108 
  209500    1914.4429    -722.2993    297389.86    15.436408 
  210000    1924.5149   -737.49651    299335.06     15.48694 
  210500    2069.5157   -743.43884    304526.48    15.595282 
  211000    1884.3778   -756.77684    298107.24    15.663256 
  211500    1883.4762    -755.2119    302312.33    15.643784 
  212000    1734.7335   -715.18608    296574.52    15.296583 
  212500    2044.8689   -719.82875    300309.49    15.366634 
  213000    2016.5368   -693.08747    302308.96      15.1432 
  213500    1912.2861   -680.98485    297886.54    15.153863 
  214000    2052.0396    -688.7314       301278    15.140361 
  214500    2116.7667   -712.12217    299939.18    15.388367 
  215000    2166.4529   -703.76892    294460.31    15.321166 
  215500    1874.5288    -708.8593    290225.39    15.359336 
  216000    2067.8309   -749.38399     306941.6    15.562473 
  216500    1927.2558   -775.96756    305950.36    15.614193 
  217000    1875.8963   -787.40458    293925.47    15.740733 
  217500    1945.9663   -768.19869    295104.24    15.556573 
  218000    1932.6332   -785.94263    309527.97    15.687332 
  218500    2100.2427   -748.39825    302220.99    15.368106 
  219000    1960.7408   -703.46302    301674.52    15.092548 
  219500      2008.42   -726.86686    297961.08    15.152148 
  220000    2201.5536   -727.76959     297306.3    15.155229 
  220500    2138.5254   -698.12844    299454.64    15.156805 
  221000    2087.8433   -723.24606     297686.8    15.422571 
  221500    1973.1889   -676.67397    304467.89    15.020164 
  222000    2023.7718   -634.38612    313913.57    14.651556 
  222500    2129.3301   -640.84005    285700.57    14.757467 
  223000    2032.6229   -699.90596    297452.38     15.07794 
  223500    1968.2862   -685.22733    300244.01     15.01071 
  224000    2012.4696   -698.16421     302392.6    15.115962 
  224500    2129.2097   -690.44561    279496.59    15.050058 
  225000    1823.8972   -711.95489    288481.28    15.129753 
  225500    1923.0099   -686.19961    303548.54    15.035833 
  226000    1998.0199   -605.80993    317490.06    14.654735 
  226500    1870.7127   -637.47035     281361.6    14.756999 
  227000    1909.3926   -626.87766    290710.35    14.699858 
  227500    2006.8068   -623.55647    301694.32    14.702987 
  228000    1827.3757   -692.72271    293910.26     15.23706 
  228500    1905.1286   -640.87124    310919.19    14.725037 
  229000    1890.7434   -698.21278    300996.74    15.069421 
  229500    1991.5097   -718.27027    290597.18    15.164691 
  230000    1958.9895    -708.0779     293101.4    15.169483 
  230500    1757.7834   -704.94443    307970.99    15.066021 
  231000    1973.0171   -702.76688     296881.8    15.118667 
  231500    1953.6254   -713.29217    291788.82    15.153302 
  232000    1941.6477   -718.23473    300845.37    15.298014 
  232500    2057.4526   -741.17713    298301.49    15.543249 
  233000    1838.5363   -739.41246    304453.13    15.553313 
  233500    1927.5883   -763.28453    304406.47    15.623395 
  234000    2048.3608   -782.88027    280452.61    15.736264 
  234500    2220.8932   -777.64688    292369.98    15.660659 
  235000    1863.1027    -775.5145    305849.68    15.703358 
  235500    2025.7338   -790.40134    309610.29    15.710231 
  236000    2057.2243   -782.02331    300868.41    15.662357 
  236500    1908.2225   -767.03971    304787.21    15.552847 
  237000    1972.6271   -738.66788    302448.04    15.185949 
  237500    1876.8082   -649.97711    300178.12     14.70084 
  238000    1997.3053   -645.68542    299993.02    14.649251 
  238500    2118.0273   -664.64306    296104.83    14.790347 
  239000     2082.044   -720.79933    296637.04     15.24104 
  239500    1895.4048   -740.25238    301201.19    15.426064 
  240000    2087.2284   -792.72424    272113.95    15.768159 
  240500    2011.3216   -795.79206    279159.24    15.783945 
  241000    2088.9018   -795.65902    299136.19    15.760646 
  241500    2122.8885   -710.17127    302812.89    14.968084 
  242000    2146.6882   -704.15466    298740.08    14.958686 
  242500    1850.7668   -764.78622    301863.93    15.496508 
  243000    2213.4739   -740.43457    304892.09    15.164476 
  243500    1971.7185   -719.07852    297285.46    15.109477 
  244000    1883.2159   -714.72016    291601.19    14.999849 
  244500     2031.808    -717.4874     294565.8    15.092841 
  245000    2039.4033   -714.30449    302042.39    15.023256 
  245500    1876.6393   -742.90943    295650.19    15.220539 
  246000    2108.1501   -688.31251    309917.78    14.872457 
  246500    2066.0086   -644.75879     320818.6    14.614248 
  247000    2002.1385   -652.93229    293918.42    14.708766 
  247500    2004.9105   -654.70717    294324.04    14.728424 
  248000    2008.5821   -638.56636    308957.08    14.671755 
  248500    1990.9852   -711.94182    299005.47    15.121248 
  249000    2014.2098   -725.76133    290837.28    15.153973 
  249500    2104.2157   -723.63214    297772.32    15.082712 
  250000    1878.6286   -720.96674    295492.82    15.171594 
  250500    1861.7407    -654.6395    281832.98     14.78993 
  251000    1953.4945   -685.01896    297645.15    14.904107 
  251500    2049.1091    -779.4941       289834    15.725291 
  252000    2063.1161   -743.72978    301725.75    15.472143 
  252500    1991.7535   -704.44565    299501.71    15.070561 
  253000    2083.2535   -668.13317    295565.02    14.856493 
  253500    1946.8984   -633.61605    316393.42     14.67039 
  254000    1766.6849   -648.95273    293055.33    14.758769 
  254500    1862.0549   -631.22821    322636.39    14.632034 
  255000    1881.2561   -649.43655    302983.12    14.684753 
  255500    2008.0887   -655.47333    293804.09    14.743062 
  256000    2020.9248   -635.46621    310420.87    14.664196 
  256500    1900.0569    -651.5727    286428.09    14.806617 
  257000      2007.13   -750.09767    297903.39    15.367087 
  257500    2003.2779   -741.83692    303069.97    15.207225 
  258000     2201.901   -727.66292    298564.29    15.151922 
  258500    1998.2653   -684.59599    308966.92    14.761469 
  259000    2263.7302   -759.50526    300765.98    15.311846 
  259500    1985.2238   -750.60751    300581.03    15.337656 
  260000    1871.9012   -799.36628    305077.69    15.730466 
  260500    2076.2572   -791.61129    297442.88    15.756628 
  261000    1941.9192   -779.43266    301943.69    15.747537 
  261500    1890.3694   -786.26397    298321.68    15.721994 
  262000    1944.6587     -711.482    289792.07     15.14887 
  262500    1898.8529   -643.51921    299337.37    14.726529 
  263000     1952.182    -633.1824    295216.21    14.754798 
  263500    1910.1066   -632.79003    307615.87    14.796747 
  264000    2054.3769   -674.24453    295323.36    15.016178 
  264500    1915.7727   -748.54657    301522.87    15.586013 
  265000    2053.0538   -749.50679    294612.54    15.527637 
  265500     1942.068   -673.10504    298466.16    14.928755 
  266000    1948.6081   -667.60893     301156.2    14.838382 
  266500    2016.6139   -625.64964    305160.46      14.6991 
  267000    2139.0321   -710.28141    285965.92    15.133258 
  267500    2116.6933   -652.81814    313086.58    14.740587 
  268000    1923.9208    -642.5866     290425.6    14.709862 
  268500    2014.8666   -626.63882    311207.83    14.663965 
  269000    1968.9136   -643.05956    297127.76    14.743688 
  269500    1814.1239   -674.30581    295531.33    14.910644 
  270000    1902.2724   -653.96527    289553.37    14.787797 
  270500    1931.9774   -685.68344     299546.2    14.964506 
  271000    1975.0991   -634.29484    300754.63    14.689102 
  271500    2119.1221   -656.25858    284843.85    14.761746 
  272000    2025.7007   -625.05345    306940.15    14.627391 
  272500    1997.3066   -630.76502    296812.91    14.674146 
  273000    2195.9427    -630.7551    315032.11    14.673171 
  273500    1999.6054   -735.79101    300368.73    15.570353 
  274000    1852.3092   -708.68433    305082.46    15.405738 
  274500     1980.064   -690.68665    301719.05     15.41825 
  275000    2223.5331   -759.86578    294419.37    15.827656 
  275500    2152.6366   -649.60816    304759.47    15.047174 
  276000    2057.6323   -649.95709    296042.63    15.114923 
  276500     1849.692   -653.40978    297665.97    15.104652 
  277000     1989.188   -655.85833     292885.9    15.125344 
  277500     1985.814     -660.236    297738.65    15.204692 
  278000    1996.2127    -651.0903    297311.45    15.217943 
  278500    1927.0701   -643.54565    291604.58    15.239284 
  279000     2045.854   -657.69936    293960.09    15.195262 
  279500    2120.4924   -691.33363    308710.83    15.424841 
  280000    1989.5874   -708.27433    298354.02    15.585637 
  280500    2077.5869   -694.86248    305609.36    15.537038 
  281000    2114.5773   -689.48208       307149    15.516893 
  281500    1962.6281   -693.91096    309468.51    15.359635 
  282000    2025.5142   -738.44657    301292.01    15.693825 
  282500    2108.6684   -698.80438    294619.23    15.536015 
  283000    2104.8103   -712.63812    290277.61    15.669163 
  283500    2013.5994   -679.42409     305905.3    15.472181 
  284000     1994.626   -657.02483    295680.98    15.130889 
  284500    1967.0339   -650.43869    301433.28    15.056389 
  285000    1891.8466   -649.43607    300586.45     15.12577 
  285500    1892.0044    -624.3705    295350.84    14.838831 
  286000    2005.4945   -647.95265    309499.36    14.949906 
  286500    1865.1703   -643.95853    294999.63    15.073855 
  287000    2111.1948   -630.21007    312816.41    14.984157 
  287500    1912.2659   -596.26288    300484.49    14.751213 
  288000    1779.6763   -653.07477    290404.12    15.076739 
  288500    2102.1906    -681.0365    293542.77    15.209352 
  289000    1901.7232   -619.41946    294756.44    14.834863 
  289500    1929.6149   -629.71353    297866.59    14.955009 
  290000    2088.1388   -725.31376    297611.04     15.63569 
  290500    2028.6293    -675.4193    305022.75    15.240601 
  291000    1909.7649   -759.57696    295472.83    15.855398 
  291500    1947.5116   -755.18752    306723.55    15.776869 
  292000    1836.7505   -755.95382    301861.22    15.779808 
  292500    2083.4237   -750.62303    306373.96    15.788554 
  293000    1898.7403   -720.54316    298467.55    15.526854 
  293500    1932.2508   -693.17718    299421.48    15.578184 
  294000    1983.6056   -707.82761    300827.18    15.559697 
  294500    2047.8988    -698.1308    296183.74    15.503684 
  295000    2054.8064   -715.85309    296449.13      15.5668 
  295500    1878.2458   -658.16677    300392.58    15.040723 
  296000    2199.8407   -758.55732    298792.39    15.778511 
  296500     1857.439   -700.86168    295358.38     15.21179 
  297000    1916.8903   -677.39339    301720.16    14.956012 
  297500    1841.8429   -712.68011    299366.02    15.148138 
  298000    1942.0103   -676.87242    303326.73    14.944179 
  298500    2041.5022   -695.99263    306186.17    15.030349 
  299000     2014.496   -697.82514    307049.58    15.061832 
  299500    2007.8095   -697.00371    300664.19    15.043267 
  300000    1980.4983   -671.47692    299295.49    14.866356 
  300500    2100.2783   -711.41566    301705.75    15.177037 
  301000    2019.0544   -625.48765    305648.93    14.647682 
  301500    2149.1985   -619.23505     305973.7    14.687676 
  302000    1998.4561   -632.31058    303990.61    14.702552 
  302500    2026.7244   -693.04121    296787.77    15.154776 
  303000    1872.9133   -665.68641    304243.76     14.88134 
  303500    1952.7567   -664.10292    301143.18    14.890813 
  304000    2002.2666   -662.42752    291964.04    14.919856 
  304500    1979.1512   -622.93418     299744.9     14.64619 
  305000    1843.8616   -716.74045    295021.36    15.121925 
  305500    1800.8127   -671.56146    302163.47    14.926999 
  306000    1962.8203   -674.24265    291476.51    14.928147 
  306500     1963.639   -691.04449    297122.02    15.071935 
  307000    1907.1542   -628.65364    292674.72    14.770295 
  307500    2079.9461   -601.46425    306362.96    14.661991 
  308000    2048.8426   -603.91871    312154.33    14.652215 
  308500    2102.6018   -607.51869    283785.22    14.689885 
  309000    1913.9722    -611.1637    304267.56    14.600757 
  309500    2047.3237   -605.97678    320035.55    14.609817 
  310000    1902.7157   -611.85375    289292.02     14.65251 
  310500     2123.133    -626.6805    294970.03    14.711138 
  311000    2160.6169   -719.19516     298782.2    15.255018 
  311500    1981.6998   -606.57015    288467.85    14.696313 
  312000    2205.9711   -613.48167    300400.42    14.695183 
  312500    1975.5089   -624.12166    312376.22    14.592355 
  313000    1962.9895   -619.46561    296226.74    14.655544 
  313500    2174.7152   -655.95347    301867.92    14.848234 
  314000    1933.5792   -664.19278    308462.78    14.806564 
  314500    1974.9254   -665.46711    298876.53    14.877634 
  315000     2036.314   -685.67202    299110.41     14.92783 
  315500     2026.004   -717.53251    299340.87    15.159544 
  316000    2158.1279   -663.26507    303611.04    14.925816 
  316500    2109.3642   -651.30072    307660.56    14.751354 
  317000    2063.2248   -618.58841    302437.29    14.656963 
  317500    2089.9364   -624.95322    309103.42    14.647141 
  318000    2116.8147   -618.19559    301245.89    14.653226 
  318500    2054.5043   -619.44167    291073.89    14.721798 
  319000     1966.119   -697.10145    299872.57    15.261923 
  319500     1991.277   -691.89346    295777.11    15.212697 
  320000    1894.3372   -648.26498    298674.87    15.012829 
  320500    2027.6898   -682.67685    304246.76    15.320137 
  321000    2072.6871   -746.74908    294755.23    15.767429 
  321500    1864.0503   -742.76891    297294.36    15.597251 
  322000    2049.0962    -753.5512    301601.63     15.66727 
  322500    1970.9917    -737.1945    301811.25    15.604089 
  323000    1873.2656   -736.17394    305007.49    15.470834 
  323500    2035.8053   -739.07534    298575.05    15.459861 
  324000    1892.5609   -740.74906    298378.75    15.710243 
  324500    2125.6642   -754.68255    306318.69    15.735389 
  325000    1937.4648   -759.48637    302129.53    15.820781 
  325500     1925.939   -759.37532    299371.22    15.887256 
  326000     2007.441   -742.22229    296983.68    15.586361 
  326500     1812.823   -654.70483    304712.83    15.027863 
  327000    2218.7661   -768.05276    292645.05    15.835894 
  327500    2031.2213   -752.83918    307216.71    15.719965 
  328000    2132.5677    -721.9146    303706.76    15.476804 
  328500    2009.4623   -757.05162     290795.4    15.779263 
  329000    2059.8465   -658.16781    300755.03    14.965198 
  329500    2062.4812   -721.84824    297343.92    15.240339 
  330000    2195.2178   -755.00354    302310.81     15.29622 
  330500    1932.8939   -749.51431    294917.16    15.410005 
  331000    1884.3408   -749.66041    300286.54    15.371862 
  331500    1906.8929   -744.64632    303589.63    15.455806 
  332000    2035.8096   -765.72977    302372.02    15.254948 
  332500    1966.8695   -780.50216    290480.13    15.354516 
  333000    2015.8706   -752.09063    307514.08    15.236939 
  333500    2118.6081   -716.52604    302004.46    15.028761 
  334000    1989.1356    -672.2654    304331.21    14.789583 
  334500    1933.2572   -766.03849    292763.23    15.533843 
  335000    2018.8491   -749.63019    305119.62       15.539 
  335500    2112.0655   -790.32884    306869.61    15.747871 
  336000    2011.3651   -797.70012     300548.8     15.54532 
  336500      1924.13   -705.09023    298161.17    14.823193 
  337000    2000.9362   -712.42807    297560.93    15.067147 
  337500    1952.3145   -701.28347    297340.95    14.968984 
  338000    2036.3885   -702.89099    299212.17    15.053027 
  338500    1841.1815   -635.06279    311416.05    14.628337 
  339000    1945.9611   -706.02363    296390.15    15.006751 
  339500    2040.5946    -625.0842    330046.37    14.615016 
  340000    2143.6834   -704.58897    298456.81    15.041442 
  340500    1885.8827   -631.62447    315228.39    14.645413 
  341000    1879.3462   -745.40726    302623.29    15.244867 
  341500    1815.1588   -745.74954     303565.2    15.202374 
  342000    1897.7997   -692.46028    305092.89    14.938276 
  342500     1835.419   -642.67334    308053.71    14.664565 
  343000       1991.1   -693.21122    303578.93    14.953333 
  343500    1996.3926   -715.47297    299858.39    15.087982 
  344000    1856.9418   -708.55705    293526.13    15.046383 
  344500    2070.5174   -711.88634    298074.47    15.080112 
  345000    1971.5972   -706.27074    299603.27     14.96102 
  345500    1939.4221   -700.12382    305746.04    14.959136 
  346000    1955.0744   -659.08446    302592.08    14.719689 
  346500    1995.2842   -727.30115    297258.64    15.217356 
  347000    2172.2533   -689.04851       305187    15.002698 
  347500      1988.91   -713.71861    298721.42    15.188392 
  348000    2128.2032   -703.63249    299876.92    15.121121 
  348500    2154.5105   -677.53755    302020.06     15.07689 
  349000     2048.664   -726.63006    301056.05    15.390124 
  349500    2039.2797   -738.35007    299774.91    15.539638 
  350000    2119.5859   -722.18086    300884.66    15.380604 
  350500    1965.3957   -740.05459    296907.04     15.46662 
  351000    1982.4393   -754.66996    305029.47    15.702086 
  351500    2067.8152   -750.44456    300364.36    15.553812 
  352000    2099.5269   -696.43861    298763.38    15.173108 
  352500    2015.8543   -717.14466    296748.38    15.293434 
  353000     1992.621    -711.6936    294597.43    15.149438 
  353500    1851.4913   -634.13497    300761.87    14.662397 
  354000     2008.858   -718.85201    300139.25    15.199444 
  354500    2154.0034    -705.9619    301612.65    15.211714 
  355000     2024.439   -761.63331    303372.84    15.773722 
  355500    2004.0543   -681.86293    304296.85    15.138427 
  356000    2024.6708   -699.05945    300533.09    15.298561 
  356500    2020.8899    -703.6113    299758.28    15.459827 
  357000    1886.2133   -701.11698    301080.96    15.310482 
  357500    1942.7107   -657.94238    289363.94    15.031557 
  358000    2063.3358    -626.6798    308849.32     14.89057 
  358500    1993.1391   -740.35389     298354.2    15.646712 
  359000    2084.5203    -749.9506    307687.83    15.823897 
  359500    2027.6299    -743.4623    301919.99     15.74182 
  360000    1901.2654   -750.73981     311456.2    15.788907 
  360500    1834.1435   -752.18422    307530.22    15.863195 
  361000    1824.2134   -756.43699    303279.07    15.847482 
  361500     1980.677    -764.3965    306420.73    15.755158 
  362000    1978.4035   -750.63084    298927.43    15.870711 
  362500     1968.197   -762.45923    291834.68    15.884797 
  363000    2030.1683   -766.40209    301217.42    15.818929 
  363500    1789.3903   -750.35337    305467.22    15.799339 
  364000    2006.2235   -758.59284    310459.25    15.802042 
  364500    1957.4233   -729.00708    299514.68    15.484531 
  365000    1988.2234    -616.8688    304326.78    14.763037 
  365500    2080.3603   -654.60478    297466.54    15.001567 
  366000    1800.6635     -626.557    292935.68    14.829497 
  366500    1964.9385   -613.57303    300593.14    14.698435 
  367000    1990.4169   -599.66483    305464.19    14.664751 
  367500     2100.029   -600.67054    304394.64    14.668445 
  368000    2211.0258   -636.38953    306028.24    14.762072 
  368500     2090.421   -704.40124    291297.03     15.13749 
  369000      2130.86   -680.28121     309138.5    14.915199 
  369500    2004.3601   -700.17201    304145.45    15.013056 
  370000    2038.2904   -639.10853    287545.02    14.719471 
  370500    2044.1471   -656.09767    294497.99    14.787419 
  371000    1915.7563   -670.22221    308593.54    14.830831 
  371500    1826.4927    -690.0661    303786.69    14.958956 
  372000    2119.8069   -671.96434       304336    14.861762 
  372500    1933.4948   -684.01207    289122.79    14.997294 
  373000    2033.9626   -649.10506    295967.14    14.733881 
  373500    1937.5863   -615.42981    313352.21    14.631232 
  374000    2046.7375    -631.2715    297674.13    14.654726 
  374500    1966.8151   -630.96767    304036.82    14.639351 
  375000    1942.4236   -653.34345    307918.92    14.794825 
  375500     1957.355   -646.66272    304975.17    14.775778 
  376000    1790.0828   -657.01999    302386.86    14.820941 
  376500    1969.0891   -733.00537    295507.39    15.294864 
  377000    1958.1541   -671.77346    304406.93    14.909764 
  377500    2049.8396   -732.88459    296542.47    15.347507 
  378000    2002.9536   -712.20407    302697.56    15.078889 
  378500    1950.9949   -694.20849    293656.89    14.996476 
  379000    2007.1216    -661.9111    307846.43    14.846184 
  379500    2110.2482   -683.45313    298752.86     14.96865 
  380000    1986.5965   -701.20842    304373.36    15.067422 
  380500    1771.0999   -691.53513    305967.67    15.010755 
  381000    1939.7179   -630.88099    302735.59    14.680528 
  381500    2068.6636   -606.93249    311712.46    14.630729 
  382000    1905.9156   -605.60673    304576.25    14.631858 
  382500    1994.6464    -698.7893    305508.07    15.112011 
  383000    1954.1646   -648.76333    318335.62    14.698125 
  383500    1882.9508   -659.32452    292369.13    14.842436 
  384000    2045.1644   -673.05553    285781.46    14.920273 
  384500    2164.1694   -616.71532    297565.77    14.672525 
  385000    2031.4402   -611.15964    301241.37    14.707043 
  385500    2022.4975   -608.47214    284124.33    14.705109 
  386000    1999.2265    -612.8115    302106.62    14.693072 
  386500    2102.0699   -612.35788    302821.38    14.634599 
  387000    2280.3599   -722.82842    302581.93    15.154657 
  387500    1952.4952   -668.75916    311888.71     14.86154 
  388000    2016.8599   -645.09677    296507.59    14.796929 
  388500    1903.8371   -705.21072    292861.64     15.14419 
  389000    1969.3234   -727.77257    296937.03    15.223118 
  389500    2118.2981    -688.9189    302755.12    15.027663 
  390000    2331.6643   -710.80151    299853.64    15.166572 
  390500    2072.9824   -707.27867    300924.57    15.052363 
  391000    1831.7826   -668.45507    297213.38    14.811388 
  391500     1972.246   -715.12455    294411.36    15.096736 
  392000    1905.9359   -704.50382    299546.66    15.147911 
  392500    2101.9623   -700.19346    297389.54    15.031889 
  393000    1926.4724   -722.14008    292085.44     15.10724 
  393500    2163.8132    -695.6961    299179.27    15.018276 
  394000    1906.8128   -691.03291    303586.15    14.933562 
  394500    2012.3519     -694.996    294938.07    14.972213 
  395000     1973.572   -729.50254    289885.74    15.200307 
  395500    1900.4519   -666.83928    300562.99    14.844086 
  396000    2014.2285   -709.33008    301591.21    15.082571 
  396500    2125.5912   -664.77434    307519.59    14.826014 
  397000    1784.1396   -682.95277    292238.78    14.912462 
  397500    1852.2336   -687.88221     295196.1    14.914982 
  398000    2016.8983   -697.28075    304630.31    15.020869 
  398500    2053.9378   -654.21855    312422.01    14.774684 
  399000    1886.2151   -686.40884    306231.06    14.946868 
  399500    2076.2086    -711.8681    298466.57    15.134995 
  400000    1906.1203   -707.84954    298833.95    15.067872 
  400500    2091.6548   -664.94807     305024.7    14.798552 
  401000    2060.2553    -684.7647    312330.36    14.891241 
  401500     1895.643   -656.04826    293142.96    14.870289 
  402000    2235.9394   -674.73095    301682.26    14.885259 
  402500    2032.7123   -635.35565       282652     14.76509 
  403000    1990.1742   -614.95709    301426.71    14.657286 
  403500    2007.1941   -683.24227    296415.56    14.985376 
  404000    1993.7453   -686.39717    298562.25    14.926565 
  404500    1954.0849   -656.99946    321721.53    14.756608 
  405000    1955.9837   -640.61071    304418.76    14.666766 
  405500    1967.8303   -701.50463     296060.2    15.031494 
  406000    1775.6786   -615.84821     292697.9    14.614338 
  406500    1806.2928   -649.47329     300115.8    14.831368 
  407000    1923.8667   -618.34066    301767.39    14.624227 
  407500    1857.5384   -625.57704    287714.86    14.671329 
  408000    1938.2579   -712.11422    304386.88     15.11911 
  408500    1959.0199   -709.96837     301223.8    15.017998 
  409000    2164.8676   -702.67445    304859.07    14.986394 
  409500    2013.9185    -717.4178    296665.91    15.130358 
  410000    1986.7337   -701.60057    308913.49    14.938677 
  410500    1902.2182   -678.84762       288805    14.850672 
  411000    2029.7479   -660.33591    318234.63    14.786813 
  411500    1998.4985   -662.55135    303846.89    14.823987 
  412000    2043.3826   -634.05953    301623.04    14.715706 
  412500    1939.4654   -652.60867    300296.85    14.751527 
  413000    1931.5866   -637.66127    310415.22    14.705744 
  413500    2129.4024   -671.77959    304825.79    14.909194 
  414000    2028.1829   -670.91778     296844.7    14.861955 
  414500    1912.3608   -684.46934    295252.56    14.903092 
  415000    2010.2924   -634.03333    308478.49    14.687706 
  415500    2072.1111   -651.06168    298785.15    14.781433 
  416000    1728.1284   -613.59793    320971.34    14.553288 
  416500    2005.1617   -653.59051     306105.7    14.839086 
  417000    1953.4072    -664.0622    304829.19    14.906686 
  417500    1996.7935   -737.92478     296612.4    15.367625 
  418000    1823.1067   -645.09776    297797.03    14.877483 
  418500    1934.9602   -700.18084    291363.17    15.111311 
  419000     2028.589   -688.47506    304523.41    15.047498 
  419500    2203.4264   -604.66225    312690.21    14.622453 
  420000    1977.3279   -597.41387    332173.72    14.573061 
  420500    2029.3799   -632.42813    298434.48      14.8357 
  421000    2071.4324   -611.65695    298475.61     14.65753 
  421500    1989.7243   -605.63612    290976.69    14.814079 
  422000    1945.0082   -607.55531    301584.21    14.630901 
  422500    2185.1833   -636.09492    300994.07    14.799332 
  423000     1835.627    -602.3626    295364.71    14.777677 
  423500    1984.9462   -618.12474    275754.43    14.711431 
  424000    1863.2034   -604.03686    300000.02    14.647505 
  424500    1962.1198   -619.56042    290708.37    14.657696 
  425000    1977.1497   -607.07258    304848.25    14.618138 
  425500    1934.6194    -618.0276    291368.65    14.639378 
  426000    2034.7555   -645.26795    299570.57     14.89386 
  426500     1987.055   -596.22575    320090.05    14.585224 
  427000    2004.8269   -612.70837    288550.95    14.659606 
  427500    1940.4491   -606.73874    299602.54    14.631017 
  428000    2033.7783   -676.85775    282552.17    14.933897 
  428500    1912.9728   -639.41429    297034.03     14.80497 
  429000    2075.7141   -608.54547    298208.77    14.602474 
  429500    2104.9533   -605.69162    293695.02    14.592749 
  430000    2072.4323   -602.69386    318815.58    14.591818 
  430500    2058.6307   -616.62607    291219.56    14.691819 
  431000    2105.3761   -619.87981    293528.19    14.758063 
  431500    1948.8692   -634.38513    293225.05    14.800005 
  432000    2029.5602   -631.03989    294918.48    14.765169 
  432500    1897.2092    -605.9349    281735.31    14.649498 
  433000    1899.0798   -603.71488    313146.43    14.571883 
  433500    1909.8407    -602.6099     313422.6     14.58396 
  434000    2066.7021   -624.00042    300749.51    14.675127 
  434500    2086.4812   -625.21648    298154.19    14.706297 
  435000    1969.3552   -626.28907    298024.11    14.693219 
  435500    1904.9685   -639.98287    305068.16    14.845411 
  436000    1924.9279   -608.18258    298331.92    14.641088 
  436500    2082.2233   -611.51529    289420.42    14.688701 
  437000     2043.293    -609.3713    297719.42    14.675386 
  437500    2107.4507   -604.78175     303543.8    14.639889 
  438000    2080.2669   -624.52745    290062.41    14.639413 
  438500    2116.3891   -693.33438    307738.84    14.922112 
  439000    2056.9906   -703.17805    293547.29    15.033117 
  439500    1993.4632   -663.97224    311648.46    14.797979 
  440000    2136.6299    -627.3409    302583.31    14.649406 
  440500    1997.0529   -642.39518    297468.65    14.742269 
  441000    2047.8105   -670.58924    288375.76    14.826219 
  441500    2065.0556   -684.78632    306855.66    14.966303 
  442000    1938.8611    -639.9758    303097.14    14.777193 
  442500    1933.9745   -638.81366    294835.22    14.706488 
  443000    2219.1329   -648.43074    309262.95    14.728794 
  443500    2015.2467    -658.9733    296746.42    14.874218 
  444000    2030.1517   -652.93084    294581.17    14.774202 
  444500     1777.781    -692.7516    292893.89    14.962807 
  445000    2133.9516   -699.09997     299517.7    15.002271 
  445500    2140.7464   -672.42706    301736.02    14.920776 
  446000    2176.9359   -626.85371    307761.04    14.635555 
  446500    1960.8033   -685.70064     302285.8    14.949984 
  447000    1924.6349   -747.78005    300883.28    15.552596 
  447500    1916.6338   -751.39408     300124.3    15.621655 
  448000    1988.8495   -642.21239    304388.48    14.831153 
  448500    1878.1241   -655.12546    299770.02     14.95581 
  449000    1991.7944   -745.70188    301591.68    15.729895 
  449500    1997.3507   -734.19235    299096.86    15.565324 
  450000    2035.6324   -667.00645    296001.03    15.061664 
  450500    2085.0689   -697.87726    304996.33    15.100712 
  451000    2117.6423   -702.13096    305192.93    15.255125 
  451500    1786.8413     -731.084    296386.28    15.500466 
  452000    2131.3046   -719.01765    305676.72    15.385941 
  452500    1958.5408   -637.03961    299331.05    14.786822 
  453000    2160.0997   -663.73968    301957.89    14.898852 
  453500    1961.9997   -659.87335    297779.34    14.884175 
  454000    1849.9382   -751.16587    298906.07    15.533528 
  454500    1980.9326   -651.15122    300208.01    14.830653 
  455000    2045.8902   -630.80522     300379.3    14.729764 
  455500    2065.8615   -639.11609    302691.28    14.719673 
  456000    2110.6239   -647.59983     307804.8    14.719793 
  456500    1993.5019    -652.6813    295355.19    14.707069 
  457000    1873.6849   -666.31235    295184.36    14.729024 
  457500    1988.9164   -712.29322     291777.9    14.936944 
  458000    1923.0488   -733.11964    296362.43    15.061136 
  458500    2059.4337   -701.54992    306913.27    14.804192 
  459000    2003.3639   -696.42289    299633.74    14.935913 
  459500    1981.4128   -695.11058    295772.77    14.925246 
  460000    2127.8081   -710.73935    293365.68    15.019513 
  460500    1880.5603   -691.34207    305544.19    14.953457 
  461000    2104.2599   -686.48799    301928.56    15.004535 
  461500    2037.3557   -705.99982    290148.64    15.119224 
  462000    1892.4774   -713.31415    290758.26    15.252843 
  462500    1976.2696   -743.35629    292692.85    15.603968 
  463000    2111.0267   -749.07519     302590.2    15.442679 
  463500    1805.1088   -696.06131    297753.64    15.240721 
  464000    2086.4874   -697.05019    289513.08     15.36607 
  464500    1847.4146   -687.99976    298015.18    15.445498 
  465000    2070.8784   -680.75806    306034.47     15.42924 
  465500    2079.0751   -673.19288    302579.86    15.257677 
  466000    2036.5487   -661.16869     290809.8    15.180589 
  466500     1984.672   -681.48311    302875.99    15.364322 
  467000    2013.8776   -665.64621    302355.43    15.261764 
  467500    2123.3947   -719.28995    303218.16    15.454028 
  468000    1876.5337   -732.51125    295902.84    15.541775 
  468500    1858.1904   -770.35264    269405.04     15.90891 
  469000    2071.1479   -764.60927     284437.1    15.894931 
  469500    1860.5818   -760.42381     285343.8    15.872232 
  470000    1882.5535   -765.13261    294529.97    15.841284 
  470500    1890.7925   -756.71495    303767.05    15.778406 
  471000    2108.1897   -758.07179    305730.08    15.866215 
  471500    2071.0182   -763.79822     292464.9    15.900246 
  472000    1999.3691   -763.77044    300874.34    15.827471 
  472500    1970.9805   -744.99435    306425.59    15.627109 
  473000    1943.4124   -751.42895    302246.33    15.686726 
  473500    1990.6538   -758.51284    303754.38    15.792129 
  474000    1954.0144   -750.91593    309460.77    15.731139 
  474500    2058.0927   -764.07466    297343.04    15.843081 
  475000     1953.296   -720.54104     302525.1     15.28731 
  475500    2078.4401   -766.04451    278093.86    15.881532 
  476000    1969.0186   -760.68873    304002.04    15.739609 
  476500    1791.4776   -710.08622     305583.5    15.218718 
  477000    1956.5044   -725.16719    296311.58    15.327032 
  477500    2046.3062   -637.44435    298037.41    14.709178 
  478000    1887.6189   -698.79194    302671.27    15.160173 
  478500    1948.0591   -700.33488    299272.14    15.104708 
  479000    1832.1323   -707.80585    299539.35    15.161491 
  479500    1956.5977   -703.50242    297953.21    15.101143 
  480000    2118.2768   -738.43509    300431.18    15.475826 
  480500    2061.6271   -753.69363    307182.58    15.683604 
  481000    2159.4422   -725.07006    306427.45    15.363379 
  481500    1973.9319   -738.25434    301555.44    15.393475 
  482000    2060.3599   -735.23823     298356.5    15.369003 
  482500    2031.0972   -741.14486     301294.3    15.513193 
  483000     1835.806    -766.4191    297226.26    15.780063 
  483500     2043.325   -745.54026    302440.02    15.794364 
  484000    1931.6486    -766.9161    289676.13    15.958545 
  484500    1847.2528   -700.37247    301962.34    15.559273 
  485000    1979.5724   -704.03678    307016.41    15.532332 
  485500    1968.8149   -697.47786    306510.65    15.582399 
  486000    1930.6577   -712.90646    292287.21    15.692429 
  486500    2198.4389    -708.9239    302297.07     15.55035 
  487000    1963.5716   -654.93646    298144.45    15.185608 
  487500    1947.5305   -657.26001    292477.02    15.124605 
  488000    2135.5448   -582.66694    326917.78    14.630269 
  488500    1973.8247   -634.32823    315887.78    15.111541 
  489000    1891.4834   -685.51625    294835.66     15.49743 
  489500    1897.9333    -711.8238    282361.78    15.640816 
  490000    2044.7883   -684.48815     300166.4    15.308221 
  490500    1989.8162   -702.81843    302982.45    15.435157 
  491000    2023.2167   -722.02931    300612.79    15.455629 
  491500    1951.1915   -730.63668    302252.26    15.301843 
  492000    2124.8013   -721.58834    301608.87    15.294583 
  492500    2008.0295   -749.25962    285044.68    15.467183 
  493000    1938.9706    -747.7363    292807.74    15.444411 
  493500    1893.7217   -730.32954     296321.7    15.397538 
  494000     2162.593   -723.03537    303506.99    15.303627 
  494500    2048.2487   -697.43196    299336.58    15.071594 
  495000    2120.9372   -745.77176    296987.27    15.411648 
  495500    2022.7128   -715.02659    302627.38    15.234691 
  496000    1906.0909   -703.15321    306033.02    15.145051 
  496500    2026.7867   -675.78642    305333.79    14.943694 
  497000    1864.0082   -718.43624    300121.43    15.310022 
  497500    1938.9402   -727.93395    297258.24    15.360797 
  498000    1888.5263   -743.95609    287311.41    15.514951 
  498500    2010.7312   -671.06913    300427.69    15.014663 
  499000    1947.6385   -768.27074    290881.51    15.901617 
  499500    2103.0442   -762.47165    296668.03    15.844935 
  500000    2054.5078   -766.76289    290190.72    15.872797 
  500500    2031.5264   -749.33086    299694.34    15.861802 
  501000     1953.765   -762.24634    300308.58    15.869464 
  501500    1909.2819   -763.65291     290079.5    15.890834 
  502000    1884.6574    -752.0252    303228.55    15.745379 
  502500    2099.5715   -765.48537    284074.19    15.880899 
  503000    1988.5802   -667.61932    295878.48    15.123367 
  503500    2112.4743   -697.81404    301180.89    15.203095 
  504000    2071.6996   -706.62279    298706.43    15.355883 
  504500    1980.6256   -694.74944     296795.5    15.255321 
  505000    1966.5397   -690.55171    300427.05    15.225761 
  505500    2084.2871    -692.4624    306281.11    15.062678 
  506000    1911.7979   -723.76305    298148.28    15.374596 
  506500    2028.2843   -752.18491    305358.63    15.735075 
  507000    1935.6678   -760.97785    302369.28    15.822594 
  507500    2052.1931   -759.99598    308938.04     15.72713 
  508000    1828.6391   -725.75695    300735.08    15.467087 
  508500    1955.6115    -754.2012    294599.72    15.581874 
  509000    1970.9001   -786.43225    300209.25     15.77156 
  509500    1923.1627   -772.76146     299272.1    15.707976 
  510000    1813.6563   -768.92612    301707.66    15.711088 
  510500    2036.5776   -772.81505     316266.1     15.75609 
  511000     1864.594   -702.51307    302946.51     15.21212 
  511500    1886.1064   -704.35607    291547.54    15.205428 
  512000    2058.1611    -629.4092    301296.59    14.704061 
  512500    2023.5226   -639.51578    300090.04    14.693512 
  513000    2157.7661   -653.73003    287956.54    14.676629 
  513500    1914.8166   -723.63995     297200.1    14.975382 
  514000    2036.8261   -720.71388    299298.78    14.944335 
  514500    1956.6051   -756.22485    298382.63    15.149812 
  515000     1852.462   -754.69911    303591.88     15.24147 
  515500    2247.7615    -746.0172    306238.15    15.220812 
  516000    2098.1975   -743.68708    306044.52    15.315959 
  516500    1855.1951      -719.16    296116.91    15.215476 
  517000    2108.2648   -688.37709    307231.04    14.931499 
  517500    2247.4781   -684.07215    304169.61    15.086171 
  518000    2125.9901   -771.21317    273627.68    15.876988 
  518500    2111.3936   -691.42322    300968.38    15.118186 
  519000    2216.4113    -709.8946     303920.7    15.185934 
  519500    1980.3221   -718.70981    297448.26    15.210727 
  520000    2039.1987   -800.83547     273753.6    15.830778 
  520500    2105.0398   -719.54073    302114.75    15.210276 
  521000    2098.6996   -640.44657    303131.72    14.648108 
  521500    2087.2209   -707.45355    296249.75     15.07799 
  522000     2073.415   -771.77194    292723.57    15.536162 
  522500    1855.6393   -768.47165    292304.66     15.52169 
  523000     1791.567   -705.37794    296977.72    14.981962 
  523500     1852.677    -697.0019    297092.76     14.98681 
  524000     1962.484   -673.34501    303363.72    14.830405 
  524500    1991.4101   -661.56828    294634.53    14.690668 
  525000    1896.9721     -644.381    317646.37    14.566648 
  525500    1955.7434   -718.73893     298462.1    14.967062 
  526000    2055.8154   -734.17186    300050.76    15.069648 
  526500    1792.9182   -790.09008    292386.08     15.82511 
  527000    2062.5436   -776.54562    317097.89    15.737826 
  527500    1875.9972   -756.70014    302843.32    15.627636 
  528000    1989.2428   -653.33119     296208.4    14.845176 
  528500    1986.0669   -706.14258    299717.63    15.088412 
  529000     1986.047   -685.99269    305949.28    15.021466 
  529500    1823.0642   -628.13701    296857.89    14.741099 
  530000    2043.0587   -646.37826     303797.1    14.875925 
  530500    1873.1234   -649.17457       303107    14.900968 
  531000    2222.6326   -675.00452    301673.76    15.107355 
  531500    2180.9516   -757.52784    277739.26    15.882813 
  532000    2100.7685   -756.57499    303528.64    15.731963 
  532500     2071.531   -761.23679    303777.08    15.762383 
  533000    1774.9401   -761.78727    301952.47    15.843813 
  533500    1980.1364   -752.39199    298507.99    15.850705 
  534000    1844.0445    -767.5474    299624.39    15.803191 
  534500    2177.8807    -742.8211    301671.05    15.496633 
  535000    2024.4206   -706.36116    303147.62    15.273897 
  535500    2028.7628   -665.08588    301835.66    15.124874 
  536000    2100.9567   -673.64102    302161.37    15.321107 
  536500    1957.7264    -693.3208     303597.7     15.47562 
  537000     2042.818   -724.70482    299894.18    15.578632 
  537500    1969.5475   -695.03552    307343.56    15.446755 
  538000    1898.7106   -674.38861    300090.52    15.468816 
  538500    1903.9052   -686.35522    298741.37    15.551619 
  539000    2128.1675   -730.07547    301139.21    15.736479 
  539500    2113.2414   -704.90032    307802.51    15.583247 
  540000    1936.6691   -764.91581     283473.2    15.993381 
  540500    1934.7195   -762.84677    301203.35    15.883682 
  541000    2245.2362   -758.45054    297524.68     15.88702 
  541500    1696.5211   -757.95301    295285.69    15.883872 
  542000    1874.2341   -752.59508    303943.13    15.856575 
  542500    1974.9655   -761.34419    292421.45    15.880016 
  543000    1743.6952   -748.44232    296570.87    15.793611 
  543500    1958.2395    -757.0298    293139.83    15.908903 
  544000    2066.1315   -756.09514    292434.93    15.912158 
  544500    2033.6116   -748.91333    303719.74    15.723897 
  545000    1946.8046   -715.81011    300650.89    15.617144 
  545500    2040.6762   -711.54759    285761.66    15.789788 
  546000    2133.1939   -597.56232    301022.83    14.881931 
  546500    1925.9723   -640.25869     299179.9    15.120122 
  547000    2016.6144   -639.75428    303031.88    15.144876 
  547500    2028.7445   -652.68742     294586.3    15.094955 
  548000    2065.7024   -626.77212    299545.45    14.974464 
  548500    1890.0807   -623.65885    298018.61    14.981057 
  549000    1916.0503   -620.89557    296582.31    14.975397 
  549500    1783.9384   -624.64684     301881.6    14.982865 
  550000      2027.62   -647.49899    299698.71    15.193849 
  550500    2096.2681   -645.69095    303318.96    15.204909 
  551000    1902.6253   -700.79828     295759.6    15.587201 
  551500    2077.7604   -613.18997    308446.25    14.940451 
  552000    2008.0944   -655.18963    292726.74    15.172744 
  552500    2220.9626   -644.67441    292148.94    15.089853 
  553000     1932.457   -620.81929    302186.45    14.869195 
  553500    1983.3548   -582.19673    310233.94    14.723644 
  554000    1920.8811   -652.17764    297046.01    15.067751 
  554500     1904.522   -595.48576    291912.97     14.75546 
  555000    2171.3024   -588.61399    309452.27    14.681471 
  555500    1869.3251   -603.46868    296506.06    14.819851 
  556000    1925.8307   -636.86135    298606.95    15.082511 
  556500    2098.6176   -589.32369    298380.81    14.757071 
  557000    2004.5538   -670.99752    293640.79      15.3242 
  557500    2046.8565   -652.65853    299616.57    15.196382 
  558000    2006.9043    -640.5525    300702.34    15.106971 
  558500     1745.403   -632.74427    311643.02    15.111111 
  559000    1942.9895   -578.11521    315973.03    14.766055 
  559500    1958.2856   -697.05096    302715.09    15.567554 
  560000    1936.3758   -642.37643    295986.82    15.195794 
  560500    1979.8311   -648.19922    295211.69    15.251019 
  561000    2080.4326   -591.77582    302805.92    14.778379 
  561500    2010.7809   -600.09269    293380.03    14.793335 
  562000    1968.1017   -595.33807    298270.57    14.840707 
  562500    2112.8965   -685.60201    304284.85    15.446989 
  563000    1963.4317   -703.77588    306114.13      15.5513 
  563500    2064.9673   -724.70948    301577.89    15.709445 
  564000    2172.5062   -734.07449    304322.23    15.770941 
  564500    2186.5428   -730.94018    302880.16    15.745496 
  565000    2015.6653   -635.63819    305919.71    15.143246 
  565500    2115.1078   -724.30585    296150.96    15.705502 
  566000    2023.1552   -731.56392     298114.8     15.67711 
  566500    1860.9871   -745.26829    303424.36    15.761917 
  567000    2096.8729   -728.74843    302924.24    15.410505 
  567500      2260.78   -718.17096    302100.51    15.215519 
  568000    1902.6031   -685.04744     313610.2    14.976361 
  568500    1999.5029   -731.44663    299457.31    15.478479 
  569000    2047.6319   -731.09576       300221    15.347871 
  569500    1990.0911     -736.053    301683.25    15.308717 
  570000    2255.4516   -717.20641    304201.07    15.235477 
  570500    1941.6484   -755.49731    291413.65    15.568045 
  571000    2018.5985   -696.30789    295922.27    15.102061 
  571500    2012.8508   -722.55109     297153.3    15.256948 
  572000    1980.8619   -703.66721    300207.36     15.19495 
  572500    2081.2989   -771.40254    299554.87     15.86721 
  573000    2069.4309   -761.06259    300318.18    15.944264 
  573500    2116.0507   -755.55739    303228.03    15.874018 
  574000    1984.8298   -771.54027    300302.31    15.865247 
  574500    1924.8561   -757.35712    290259.46    15.936347 
  575000    2041.1022   -754.51334     305088.1    15.887078 
  575500    2016.9397   -758.50617     303378.3    15.868609 
  576000     1894.602   -762.50618    302814.24    15.884716 
  576500    2153.2317   -757.98626    295828.04    15.889209 
  577000    2044.7143   -756.30245    305167.11    15.727942 
  577500    1897.9932   -730.18323     302963.5    15.493339 
  578000    2007.6399   -717.05349    299161.64    15.575103 
  578500     1915.354   -743.13755    302894.14    15.793046 
  579000    1903.0837   -740.56305    297418.88    15.887932 
  579500    2035.8288   -759.13662    307750.31     15.79707 
  580000    1774.3101   -715.43077    298572.74    15.577442 
  580500     1985.458   -622.41739    301601.47    14.852393 
  581000    1996.7249   -595.08423    300012.56    14.679694 
  581500    1911.8983   -582.95851    311770.02    14.743362 
  582000    2239.7268   -613.98603    310330.43    14.918763 
  582500    1969.6158   -687.03234    299561.85    15.334141 
  583000    2073.8435   -699.37756    297551.63    15.367603 
  583500     1961.734   -662.87316    302674.23    15.165204 
  584000    2057.9588   -661.49616    297459.52    15.180997 
  584500    1840.3602    -721.6454    287983.53    15.715386 
  585000    2138.2436   -617.84965    313359.46    14.928694 
  585500    1958.2788   -602.03648    296916.77     14.73853 
  586000    2005.6849   -609.59736    301921.25    14.688917 
  586500    2023.5785   -630.98519    300601.14    14.695725 
  587000    1917.2397   -647.78003     286870.2    14.794717 
  587500    2170.9873   -672.64805    292308.16    14.875901 
  588000    2038.5436   -675.71796    297616.28    14.909884 
  588500    2239.5384   -664.18931    299287.56    14.785234 
  589000    2009.2103   -626.19253    304830.94    14.606164 
  589500    1979.9144   -667.83411    302835.25    14.792828 
  590000    2136.1049   -681.33561    289476.53    14.901541 
  590500    2002.8389    -605.8383     337307.5     14.53619 
  591000    1992.5726   -655.74111    307167.25    14.776406 
  591500    2303.6539   -611.89289    315752.66    14.561276 
  592000    2100.0585   -614.91351    279016.08    14.646066 
  592500    2029.0825   -628.67316    309111.71    14.636098 
  593000    2104.8446   -685.74297    313161.56    14.884622 
  593500    2119.0321   -664.60292    302969.12    14.861711 
  594000    1956.5339   -645.34852    302044.81    14.827649 
  594500    2003.5706   -657.71249    309980.39    14.759553 
  595000    1956.4959   -671.83641    304506.24    14.817487 
  595500    1967.0405   -660.22203    304447.24    14.745302 
  596000     2140.482   -696.46539     307781.4    14.980098 
  596500    2038.6075   -632.25296    298099.14     14.65556 
  597000    2041.2889   -621.17489    304492.77    14.641663 
  597500    1974.4863    -643.2414    297730.96    14.651489 
  598000    2018.6614    -622.6489    305085.09    14.609393 
  598500    1936.3072   -615.67671    296593.32    14.601796 
  599000    1896.9843     -613.988     307140.3    14.592442 
  599500    2052.3383   -660.81872    306939.62    14.767593 
  600000    1846.3365   -652.89412    291712.63     14.80017 
  600500    1974.7909   -653.49913    298579.33    14.753381 
  601000    1876.0224   -638.36432    289733.22    14.705558 
  601500    2144.7237   -624.23744     291989.8    14.656342 
  602000    2007.6328   -712.82329     301884.8    15.118625 
  602500    1943.8568   -656.92951    289342.07    14.881455 
  603000    2028.9715   -684.71098     304063.6    14.942634 
  603500    2041.7664   -680.75835    296162.61    14.863927 
  604000    2203.7616   -701.90001    303368.28    15.035125 
  604500    1947.6693   -695.13847    300518.85    15.013804 
  605000    1910.9724   -662.35386    292633.62    14.869722 
  605500    2084.9711   -650.77474    307437.04    14.827373 
  606000    1926.5902   -705.04469    295326.48    15.054265 
  606500    2023.4472   -680.41294    305352.67    14.891388 
  607000    2007.3166   -616.08009    296181.24    14.592205 
  607500    2105.5035   -660.56547    303715.62    14.804267 
  608000    2093.0101   -629.42868    279636.31    14.670021 
  608500    1929.7791   -621.09073    293836.89    14.668516 
  609000    1872.3971   -635.38083    303851.24    14.636064 
  609500    2097.6482   -684.20083    297247.34    14.909821 
  610000    2003.2154   -620.97923    296964.57    14.666185 
  610500    2074.9996   -643.91951    291769.17    14.721811 
  611000    2027.4149   -658.50552    294889.28    14.759745 
  611500    1823.3288   -606.07511    343290.34    14.526713 
  612000    2012.0677   -647.36775    303306.97    14.731027 
  612500    2138.0231   -647.82337    292017.36    14.730404 
  613000    1944.9072   -629.55911    309399.58    14.620678 
  613500    1983.6475   -670.21525     314592.1    14.817313 
  614000    1934.3672   -726.30513    289048.16    15.161768 
  614500    1898.8478    -625.9839    296723.84    14.630128 
  615000    2250.2842   -663.23724    311499.61    14.752015 
  615500    2110.5589    -668.0426    282438.95    14.874283 
  616000    1862.0767   -627.81315    303088.81    14.607848 
  616500    2015.5739   -718.44291    301668.79    15.078436 
  617000     1816.304   -678.82319    290279.48     14.90708 
  617500    1847.0294   -701.98748    303971.51    14.990501 
  618000    1943.6276   -733.98215    298797.44    15.241293 
  618500     1977.302   -713.74691    299074.48     15.09049 
  619000    1999.1387   -704.77749     299759.8    15.030318 
[...]
14848500    2073.3456    -751.3259    302063.18    16.039692 
14849000     1979.044    -739.8924     297096.7     15.85001 
14849500    2082.2103   -751.99461    303061.22    15.851744 
14850000    1927.1226   -729.68683    298578.77     15.71651 
14850500    2035.8373   -611.14136    306517.29    14.927931 
14851000    1864.2683   -647.14962    300966.85    15.058934 
14851500    2070.4281   -650.18424    298126.07    15.074163 
14852000    2058.2793   -719.87229    302993.43    15.469876 
14852500    2197.0093   -631.31069    306406.75    14.841914 
14853000    2012.6185   -624.10894    301806.09    14.954709 
14853500    1919.6645   -635.94616    298174.69     15.11924 
14854000    1934.4864   -633.91111    294476.65    15.090487 
14854500    2025.8773   -708.17461    305189.22    15.675264 
14855000    2048.4839   -759.39588    301896.22    15.888269 
14855500    2088.5795   -744.23967    298487.42    15.895601 
14856000    2040.0671   -630.60486     298119.4     14.93478 
14856500    1889.2447   -663.37116    300586.64     15.20251 
14857000    1922.3242    -733.5739    298793.58    15.733995 
14857500    1919.5628   -756.93275    298214.98    15.838207 
14858000    1896.6774   -734.94927    304094.17    15.812818 
14858500    1946.7202   -739.80257    291442.06    15.887822 
14859000     2087.685   -755.55654    304605.37    15.816912 
14859500    2040.2574    -756.3641    306089.04    15.776858 
14860000    1949.7339   -663.86012     299236.8    15.184996 
14860500    2084.5433   -652.94575    296713.07    15.061556 
14861000    2036.2667    -652.3814    295599.17    15.131689 
14861500    1816.6649   -703.76307     286798.5    15.566531 
14862000    1764.5772   -635.51988    294179.59    14.955616 
14862500    2029.8194   -701.77509    297305.48    15.439616 
14863000    2093.9487   -668.53368     302325.7    15.342754 
14863500    2112.2605   -695.46459    297355.13    15.465664 
14864000    1880.5579   -595.77728    297148.32    14.732598 
14864500    2032.9207   -692.59845     303671.2    15.333612 
14865000     1891.506   -713.84371    301601.56    15.501183 
14865500    1870.7197   -648.43186    298145.39    15.169933 
14866000       1948.4   -630.36885    294852.32    15.017556 
14866500    1984.1322   -689.81979     291365.6    15.548346 
14867000    1931.0117   -652.47745    294852.02    15.098653 
14867500    1917.6602   -645.72646    301946.59    15.051733 
14868000    2035.6595   -595.83496     299245.5     14.69758 
14868500    1920.8391   -680.57098     295157.2    15.158034 
14869000    1917.5579   -691.52184    298980.04    15.133443 
14869500     2187.894   -760.50529    299021.55    15.677157 
14870000     2052.259   -751.30929    297361.67    15.569076 
14870500    1951.3728   -768.11986    290495.05    15.890263 
14871000    1900.9478   -745.39068    282200.44    15.630244 
14871500    1921.0345   -757.03013     301256.1    15.785159 
14872000    1902.8646   -746.83226     304258.3    15.779295 
14872500    1931.3403   -740.51073    305180.26     15.76136 
14873000    2005.0413   -738.51107    303743.07    15.624504 
14873500    2001.9008   -717.41994     300004.3     15.59902 
14874000    1869.7652   -672.88279    296890.63    15.375546 
14874500    2028.7772   -692.67804    298125.66    15.395128 
14875000    2348.2702   -670.91032    304148.05    15.355551 
14875500    2047.5971   -727.55859    298598.44    15.892212 
14876000    1985.8303    -644.2833    304773.75    15.212646 
14876500    2062.3928   -593.67099    306813.21    14.965739 
14877000    2236.7957   -611.62033    298412.88     15.03962 
14877500    2088.7252   -743.58573    299299.59    15.973615 
14878000    1845.7994   -717.10074    298416.37    15.795407 
14878500    1855.6274   -763.57194    285364.64    16.041653 
14879000    2090.8716   -741.10997    298941.36    15.886222 
14879500    2122.2035   -646.61126    303934.68    15.086676 
14880000    2084.2795   -699.66055    301880.84    15.444386 
14880500    1899.5595    -661.3633    304561.78    15.140717 
14881000    1897.7581   -629.37157    298957.35    14.962971 
14881500    1916.4679   -639.30012    302934.58    15.088275 
14882000    2162.4574   -642.28845    301227.23    15.043248 
14882500    2106.9838   -621.37089    305862.69    14.884981 
14883000    2169.3366   -634.60827    302874.54    14.914706 
14883500    1970.7542   -663.08145     297449.1    15.118429 
14884000    2164.9074   -623.73766    303446.82    14.846208 
14884500    1946.4487   -614.54271    303105.21    14.892453 
14885000    2014.9645   -677.78216    298645.46    15.129124 
14885500    1930.6094   -695.71315    301243.99    15.222135 
14886000    1993.5032   -751.49375    298910.24    15.598227 
14886500    2082.4402   -757.85308     305554.7    15.729299 
14887000    1751.1977   -746.58665    299716.12    15.735216 
14887500    1986.2515   -744.23924    301709.14    15.601722 
14888000    1773.3753   -767.63791    287318.46    15.917237 
14888500    1888.9646   -693.93854    297945.09    15.185062 
14889000    1884.0263   -641.58612    298045.74    15.071019 
14889500    1958.6778   -634.21126    295449.24    15.028575 
14890000    1928.4484    -689.7253    297103.15    15.453448 
14890500    2121.4445   -677.46069    296519.03    15.424605 
14891000    1920.4804   -670.43442    306169.31     15.30163 
14891500    1769.0748   -630.49022    294117.22    14.997487 
14892000    1810.9074   -678.09774    295056.34    15.301606 
14892500    2143.7987   -604.85942    318005.55    14.863752 
14893000    1882.6172   -671.49299    299982.55    15.284212 
14893500    1927.0367   -673.64963    295876.86    15.416546 
14894000    1990.9126   -606.91828    304882.81    14.863245 
14894500    2170.6057   -736.21535    304302.15    15.645527 
14895000    1891.5513   -730.00805    303227.29    15.725521 
14895500    1957.7601   -682.00278    295114.91    15.506935 
14896000     2094.385   -577.46499    307845.52    14.779265 
14896500    1951.4944     -697.151    298820.24    15.564939 
14897000    1886.0586   -694.01589    294841.26    15.505177 
14897500     2046.451   -641.83041    302256.08    15.135696 
14898000     2112.192   -612.60521    303818.88    14.906341 
14898500    2061.9796    -746.6153    262020.74    16.152481 
14899000    2103.7822   -698.86423    303762.13    15.756089 
14899500    2136.7419   -721.54283    304475.77    15.733996 
14900000    1847.8441   -704.71044    291155.65     15.85002 
14900500      1881.86   -698.79535    296310.99    15.712247 
14901000    1858.7056   -697.57025    295605.26     15.62363 
14901500    2145.2577   -642.57536    302319.66    15.117734 
14902000    2033.1663   -629.04563    300440.17    15.083267 
14902500    2132.4957    -746.1947    298712.25    15.896908 
14903000    1797.6052   -658.74911       300237    15.281261 
14903500     2093.538   -689.72002    300747.51    15.536905 
14904000    1983.7446   -670.22452    299232.22    15.451257 
14904500    1961.6309    -671.9868    300361.35    15.403876 
14905000    2164.3777   -739.64644    300505.24    16.036813 
14905500    2054.3582   -697.24599    300519.67    15.569492 
14906000    2147.7997   -670.97652    297321.29    15.292824 
14906500    2268.4388    -704.0512    304514.09    15.493987 
14907000    2195.1829   -678.15811    301801.72    15.312128 
14907500    2015.9036   -696.10286    295343.56    15.567533 
14908000    1937.8991   -630.88143    300403.12    15.122413 
14908500    2228.2667   -708.97549    303221.32    15.634291 
14909000    1925.8494   -703.03986    300922.21     15.62335 
14909500    2006.8087   -664.09336    301272.15    15.353575 
14910000    1867.5817   -704.83449    298322.93    15.553543 
14910500    2046.1862   -695.47981    298310.75    15.459963 
14911000    1982.4758   -644.88414     301644.5     15.19968 
14911500    2091.3667   -708.59227    303670.33    15.491243 
14912000    2071.2956   -754.94538    306110.74    15.596306 
14912500    1910.8642   -732.65177    298481.74     15.44125 
14913000     1955.588   -715.61047    301562.08    15.273568 
14913500    1994.7992   -634.27839    299707.03    14.904843 
14914000    1840.3115   -629.74905    287165.84    15.010145 
14914500    1768.2005   -701.97689    294358.22    15.523456 
14915000    1790.5981   -615.07366    299642.83    14.887138 
14915500    2140.1839   -556.24834    332008.67    14.529841 
14916000    1949.2826   -564.48688    298185.82    14.549038 
14916500    1995.6015    -568.7151    312531.86    14.523124 
14917000    1937.3654   -559.47774    322012.13    14.536544 
14917500    2022.9933   -676.16309    297792.17     15.02937 
14918000     1882.852   -616.66864    299499.98    14.729516 
14918500    1819.3508   -624.23522    295640.72    14.877619 
14919000    1966.9885   -620.72641     302296.5    14.790138 
14919500    1893.0834   -647.20479    300268.31    14.871161 
14920000    1993.2691   -745.00601    296515.41    15.376357 
14920500    1891.5075   -673.11202    302495.88    14.920132 
14921000    1774.4673   -717.42211    301537.87    15.262765 
14921500    1947.6669   -768.64245    296270.49    15.806933 
14922000    1996.3344   -713.52733    295384.03    15.139164 
14922500    1943.4135   -691.06581    300165.62    15.002524 
14923000    1897.9105    -671.7226    290993.45    14.918387 
14923500    1864.0011   -730.31482    300338.77    15.381581 
14924000    2167.9343   -768.44686    299502.27    15.765131 
14924500     1907.227    -656.7831    296328.15    14.996574 
14925000    2059.0651   -601.68873    302648.72    14.704922 
14925500    2127.2243   -665.01126    293569.87    15.031907 
14926000    1862.7278    -637.2847    297478.31    14.955132 
14926500     1905.069   -621.49929    290795.49    15.088878 
14927000     2039.271    -650.3618    302124.85     15.14909 
14927500    1884.9868   -705.39663    297754.79    15.573103 
14928000    1838.0855   -700.90079    296464.02    15.800856 
14928500    2179.5976   -700.21069    301122.58    15.697717 
14929000    2202.6544   -712.81432    299261.35    15.775768 
14929500    2211.4646    -711.9643    303608.96    15.754465 
14930000    1941.8945    -738.7268     299754.9    15.916112 
14930500    1924.7487   -675.44133    297845.24     15.33462 
14931000    2044.2267    -631.8313    300011.34    15.070827 
14931500    2010.5573   -609.36783    292930.03    15.030733 
14932000    2008.4538   -609.49077    302602.88    14.908328 
14932500    2068.8398   -609.82154    301456.37    14.942049 
14933000    2011.7757   -654.05563    301105.97     15.25987 
14933500    2118.5776   -755.84426    303188.07    15.927059 
14934000    1909.7906   -740.40423    300548.68    15.561529 
14934500    1919.2419   -698.24226    300785.11     15.32746 
14935000     2354.537   -612.10449    307903.13    14.926128 
14935500    2019.2613   -704.08619    301317.63    15.594924 
14936000    2247.0546   -734.74485    305203.12    15.725986 
14936500    2049.0792   -724.83281     298836.5    15.748533 
14937000    1977.3637   -764.60033    295075.52    15.979389 
14937500    2143.1527   -741.75485    301897.29    15.663129 
14938000    1930.3537    -739.8302    297708.43    15.535757 
14938500    1977.8879   -769.83721    298461.15    15.681921 
14939000    2038.7702   -732.67578    310453.55    15.317349 
14939500    1851.2653   -705.07422    302534.06    15.114907 
14940000    2082.2713   -707.72524    300603.24    15.131285 
14940500    1872.5768   -774.88074    294913.49    15.749289 
14941000    2089.9752   -729.99554    297927.74    15.343743 
14941500    2062.9452   -596.83933    309891.94    14.563722 
14942000      2036.95   -633.22758    299718.02    14.755277 
14942500     1951.556   -757.70517    301600.28     15.55896 
14943000    1821.2961   -734.07335    294962.13    15.412423 
14943500     2057.738    -684.9508    304920.15    15.107423 
14944000    1888.8832   -617.92408    300926.12    14.932276 
14944500    2064.5421   -654.51177    303287.79    15.298567 
14945000    2174.7075   -723.51133    298785.06    15.829589 
14945500    2069.2317   -709.71958    300241.19    15.786624 
14946000    2216.6309   -692.04492    302897.27    15.631474 
14946500    2032.4362   -687.26952    301443.72    15.454905 
14947000    1941.0427   -725.36158    297030.65    15.840284 
14947500    1912.5056   -697.45961    298661.01    15.646324 
14948000    1881.3493    -685.3072    302363.66    15.461076 
14948500    2061.3611   -631.25622    299840.44    15.011351 
14949000    1966.3128    -625.3016    298557.15    15.028463 
14949500    2063.5451   -659.13566    303012.47    15.217776 
14950000    2153.1688   -744.96919    298626.08    15.974059 
14950500    2074.1204   -671.32606    300315.13    15.430033 
14951000    1879.0202   -610.88285    299195.26    14.943435 
14951500    2159.2957   -636.67911    298323.28    15.087614 
14952000    2051.5551   -697.75416    298663.15    15.454215 
14952500    1982.9277   -688.41367    298669.67    15.419426 
14953000    2221.5474   -712.42808    300229.35    15.580277 
14953500     1853.818   -702.64792    294617.12    15.585688 
14954000     1985.264   -620.64114    301724.34    14.856809 
14954500    2059.0811   -684.34967    297210.51    15.368045 
14955000    1799.5976   -663.45155    299081.03    15.328407 
14955500    1879.0236   -683.53292    297958.56    15.401093 
14956000    1956.8159   -621.94557    293031.22    15.017801 
14956500    1918.6845   -642.98264    299349.31    15.088141 
14957000    2071.9858   -707.95661    301752.26     15.67996 
14957500    2081.5648   -743.65872    301432.82    15.874702 
14958000    1952.3938   -725.29998    296253.81    15.853059 
14958500    2176.3998   -728.63646    300953.62    15.829109 
14959000    2039.4068   -735.49757     308173.7    15.828087 
14959500    1962.1519    -730.4126    303349.94    15.711005 
14960000      1997.79   -729.44846    291240.94    16.056185 
14960500    1948.0237   -635.78776    299107.91    15.233702 
14961000    1981.9862    -625.4114    298694.89    15.024278 
14961500    2215.2724   -698.32988    299037.39    15.451276 
14962000    2091.9726   -689.15619    300415.91    15.407047 
14962500    1961.9226   -693.45917    297103.11    15.437699 
14963000    2054.3962   -624.00457    306291.81    14.890446 
14963500    2139.8597   -632.48395    301603.03    14.957824 
14964000    2119.1082   -713.67198    299602.14    15.590569 
14964500    1932.5234   -690.03426    299990.31    15.507326 
14965000    2295.3962   -666.91247    310778.52     15.30499 
14965500    2328.0666   -771.00048    295366.61    15.894491 
14966000    2030.5156   -780.89663    276519.94      15.8983 
14966500    1902.2829    -776.1129    294793.39    15.861405 
14967000    1873.2872    -776.5576    289710.39     15.84839 
14967500    1976.0333   -766.64196    290957.64    15.845201 
14968000    1948.4487   -711.68871    299973.53    15.525084 
14968500    2048.3106   -654.05522    291071.47    15.155893 
14969000    1932.9182    -632.0219    295000.97    15.006065 
14969500    1783.0175   -767.13456     284411.7    16.040461 
14970000    1912.2414    -687.4243    301010.37    15.402372 
14970500    2005.9686    -629.2033    303488.91    14.909774 
14971000    2042.6676    -659.9795    301547.46    15.153625 
14971500    2074.8428   -634.00116    311487.78    15.024064 
14972000    1870.8386   -749.34195    304026.78    15.811266 
14972500    1962.3776   -766.55526    298971.05    15.811336 
14973000    1926.4645   -762.41136    303107.05      15.8539 
14973500    2090.7605   -739.34456       302506    15.718458 
14974000    1812.8568   -716.83004    294533.71    15.581718 
14974500    2035.3237   -758.63847    304615.64    15.765258 
14975000    2061.0781    -778.4694    299882.24    15.833228 
14975500     2000.366   -781.98855    300192.87    15.881306 
14976000    2014.6684    -743.9327    303158.62    15.498236 
14976500    2012.4735   -720.35124    300455.81    15.237423 
14977000    2087.1872   -630.96105    311498.53    14.717405 
14977500    1962.1816    -639.4813    291383.98    14.931745 
14978000    1921.9605   -635.89313     301885.2    14.970954 
14978500    1838.2805   -630.69778    302817.63     14.95116 
14979000    2218.6226   -644.05373    294867.19    14.863619 
14979500      1765.96   -648.32963    293457.42    14.894751 
14980000    2018.5605   -720.05285    292631.19    15.132054 
14980500    1923.8461   -712.97932    293936.27    15.163126 
14981000    1949.9951   -676.91845    297148.87    14.881972 
14981500    1868.6679   -766.98715    292202.86     15.61824 
14982000    2046.0605   -634.07353    297661.71    14.599533 
14982500    1957.4252   -599.54952    302324.45    14.567731 
14983000     2126.332   -594.91745     318569.1    14.543156 
14983500     1996.677   -606.88729    303407.89    14.515335 
14984000    2008.3024   -604.77964    318983.12    14.493656 
14984500    2172.5824   -645.00828    310320.32    14.793816 
14985000    1943.9097   -734.21207    304062.91    15.385809 
14985500    1935.0134   -780.12049    302706.95    15.609188 
14986000    1755.9579   -761.19048     298537.8    15.503537 
14986500    1974.7075   -713.23312    293829.77    14.960535 
14987000    1945.6196   -760.66821    295266.77    15.173011 
14987500    1830.1979   -784.56823     302807.8    15.389705 
14988000    1854.3518   -788.41502    301749.72    15.566061 
14988500    2032.0089   -780.72274    299160.31    15.538842 
14989000    1983.4932   -780.95642    304843.12      15.5743 
14989500     2022.512   -751.84745    307597.71    15.451086 
14990000    2027.6359   -748.09576    305244.06    15.470349 
14990500    1872.3916    -756.2561    300890.83    15.503122 
14991000    1989.4746   -778.87866    286043.97    15.690475 
14991500    1991.6922   -728.27017    299424.51    15.333232 
14992000    2064.8462   -732.54787    299561.96    15.189887 
14992500    1840.8738   -705.32226    302885.58    15.028081 
14993000    1805.6837   -750.48378    303216.53    15.433853 
14993500    2031.5786   -776.53454    303651.76    15.599462 
14994000    2086.5392   -781.21372    292350.98    15.651804 
14994500    2070.1019    -793.6206    305864.56    15.460529 
14995000    2003.6537   -795.21561    306364.23    15.424546 
14995500    1905.7754   -801.89261    284665.61     15.57283 
14996000    1964.7621   -719.67918    299216.01    14.910685 
14996500    1935.1063   -705.73802    300883.51    14.818966 
14997000    2060.9781   -700.12368    293510.95    14.842189 
14997500    1955.1891   -704.59304    295499.48    14.841253 
14998000    1878.9182   -699.65515    306673.14    14.759065 
14998500    1812.9772   -713.44906    286861.68    14.877333 
14999000    2005.8872   -738.70383    302171.03    15.166707 
14999500    2099.7805   -796.40168    298562.11    15.853156 
15000000    2187.5565   -760.78431    303291.29    15.472023 
Loop time of 67391 on 6 procs for 15000000 steps with 256 atoms

Performance: 38.462 ns/day, 0.624 hours/ns, 222.582 timesteps/s
98.9% CPU use with 6 MPI tasks x no OpenMP threads

MPI task timing breakdown:
Section |  min time  |  avg time  |  max time  |%varavg| %total
---------------------------------------------------------------
Pair    | 3903.3     | 3999.6     | 4077.2     |  89.5 |  5.93
Neigh   | 111.8      | 113.55     | 116.07     |  15.6 |  0.17
Comm    | 969.47     | 1049.8     | 1153       | 185.1 |  1.56
Output  | 791.24     | 791.27     | 791.38     |   0.2 |  1.17
Modify  | 61376      | 61383      | 61389      |   2.1 | 91.08
Other   |            | 53.7       |            |       |  0.08

Nlocal:    42.6667 ave 51 max 33 min
Histogram: 1 0 0 0 2 0 2 0 0 1
Nghost:    1199.83 ave 1246 max 1164 min
Histogram: 2 0 0 1 1 0 0 1 0 1
Neighs:    3493.83 ave 4304 max 2877 min
Histogram: 1 0 1 1 2 0 0 0 0 1

Total # of neighbors = 20963
Ave neighs/atom = 81.8867
Neighbor list builds = 758089
Dangerous builds = 0

write_data	data.final.${p_id}
write_data	data.final.0
Total wall time: 18:43:17
