LAMMPS (8 Feb 2019)
Processor partition = 3
echo both

include         in.partitions
variable p_id world   0 1 2 3 4 5
include		in.temp
variable	temperature equal 2000.
variable	tempDamp equal 0.1 # approx 0.1 ps
include		in.pressure
variable	pressure equal 300000.
variable	pressureDamp equal 1.0
include 	in.seed
variable	seed world 74581 93734 128321 21934 495716 871038
units		metal
read_restart    Restart.lmp.${p_id}
read_restart    Restart.lmp.3
  restoring atom style atomic from restart
  orthogonal box = (0.497135 0.497135 0.497135) to (15.6869 15.6869 15.6869)
  1 by 2 by 3 MPI processor grid
  pair style eam/alloy stores no restart info
  256 atoms
include 	in.setup
variable	out_freq equal 500
variable	out_freq2 equal 500

neigh_modify    delay 10 every 1
include		in.al
### Argon Potential Parameters ###
pair_style 	eam/alloy
pair_coeff 	* * Al99.eam.alloy Al

timestep	0.002 # According to Frenkel and Smit is 0.001

thermo          ${out_freq}
thermo          500
thermo_style 	custom step temp pe press lx


restart 	${out_freq} Restart.lmp.${p_id} Restart2.lmp.${p_id}
restart 	500 Restart.lmp.${p_id} Restart2.lmp.${p_id}
restart 	500 Restart.lmp.3 Restart2.lmp.${p_id}
restart 	500 Restart.lmp.3 Restart2.lmp.3



timer 		timeout 23:50:00 every 1000
New timer settings: style=normal  mode=nosync  timeout=23:50:00

# NPT

include		in.dump
dump            myDump all atom ${out_freq2} dump.al.${p_id}
dump            myDump all atom 500 dump.al.${p_id}
dump            myDump all atom 500 dump.al.3
dump            myDcdDump all dcd ${out_freq2} out.${p_id}.dcd
dump            myDcdDump all dcd 500 out.${p_id}.dcd
dump            myDcdDump all dcd 500 out.3.dcd
dump_modify	myDump append yes
dump_modify     myDcdDump append yes



fix             1 all plumed plumedfile plumed.dat outfile plumed.out
fix             2 all nph iso ${pressure} ${pressure} ${pressureDamp}
fix             2 all nph iso 300000 ${pressure} ${pressureDamp}
fix             2 all nph iso 300000 300000 ${pressureDamp}
fix             2 all nph iso 300000 300000 1
Resetting global fix info from restart file:
  fix style: nph, fix ID: 2
fix             3 all temp/csvr ${temperature} ${temperature} ${tempDamp} ${seed}
fix             3 all temp/csvr 2000 ${temperature} ${tempDamp} ${seed}
fix             3 all temp/csvr 2000 2000 ${tempDamp} ${seed}
fix             3 all temp/csvr 2000 2000 0.1 ${seed}
fix             3 all temp/csvr 2000 2000 0.1 21934
fix             4 all momentum 10000 linear 1 1 1 angular

run             30000000 upto # 60 ns
All restart file global fix info was re-assigned
Neighbor list info ...
  update every 1 steps, delay 10 steps, check yes
  max neighbors/atom: 2000, page size: 100000
  master list distance cutoff = 8.28721
  ghost atom cutoff = 8.28721
  binsize = 4.1436, bins = 4 4 4
  1 neighbor lists, perpetual/occasional/extra = 1 0 0
  (1) pair eam/alloy, perpetual
      attributes: half, newton on
      pair build: half/bin/atomonly/newton
      stencil: half/bin/3d/newton
      bin: standard
Per MPI rank memory allocation (min/avg/max) = 4.005 | 4.005 | 4.006 Mbytes
Step Temp PotEng Press Lx 
14999500    2088.2245   -708.02644    295828.32     15.18973 
15000000    2044.5818    -652.9843    306662.73    14.865393 
15000500     1993.613   -677.94638    301946.37    14.957642 
15001000    2060.3106   -693.96502    295323.16     15.02322 
15001500    1823.7297   -683.82187     294759.4    14.979921 
15002000    1981.0154   -693.65116    305342.84    14.960756 
15002500    1975.6497   -686.16902     302412.7    14.954204 
15003000    1891.0306   -668.20467    306861.82    14.856803 
15003500    1989.5316   -775.67429    298847.42    15.812662 
15004000    1951.7598   -769.58405    293961.74    15.781693 
15004500    2108.2993   -700.92862     298446.8    15.144941 
15005000    1963.0164   -654.37015    291286.14    14.934252 
15005500    1961.4864   -620.90125    304518.09    14.644938 
15006000    1816.1009   -593.12083    294386.48    14.655873 
15006500    2173.7148    -625.8338    301419.86    14.680071 
15007000    1990.2464   -657.90773    301445.05    14.864198 
15007500    2062.9295    -751.3771    293315.92    15.495241 
15008000     2026.308   -713.07835    300686.16    15.239965 
15008500    1949.0876   -704.03786    294524.34    15.161001 
15009000    1900.5233   -664.03118    298452.09    14.914631 
15009500    2003.7871   -617.52376    295480.99    14.648404 
15010000    2096.4559   -733.83172     300051.2    15.408396 
15010500    2049.8451   -746.39179    301824.13    15.665113 
15011000    2082.8748   -746.81494    304190.59    15.526409 
15011500    1919.0538    -772.6167    290721.29    15.875348 
15012000     1936.115   -698.03848    301792.71    15.310615 
15012500    2049.5358   -691.84759    299870.06    15.171888 
15013000    2037.2235    -608.3851    300667.23    14.670189 
15013500    1990.0979   -581.65732    306911.96    14.552156 
15014000    1875.6138   -548.04144    311563.87    14.557379 
15014500    1961.2042    -555.4252    290604.45    14.624094 
15015000    2070.1138    -552.1753     288328.8    14.593064 
15015500    1922.8451   -574.07585    292921.94    14.634851 
15016000    1858.0244   -686.43706    297021.25    15.387624 
15016500    2088.2779   -667.86952    294897.64    15.341708 
15017000    2287.0195    -659.0532    303644.62    15.398448 
15017500    2039.1969   -741.23339    306196.76    16.006272 
15018000    2118.5246    -632.4523    295884.11     15.21569 
15018500    2235.8678   -664.98691    303880.52    15.237466 
15019000    1939.5909   -756.27703    302397.59    15.932657 
15019500    2051.7386     -732.788    298467.38    15.481605 
15020000    2005.9513   -761.98452    299818.57    15.713217 
15020500    2002.2398   -739.54742    299239.18    15.620723 
15021000    2218.6995    -649.2566    300650.19    14.920674 
15021500    2052.3086   -562.55668    298187.67    14.559299 
15022000    2084.1913   -561.72351    294103.24    14.587254 
15022500    1998.2923   -556.76544    290512.07    14.591551 
15023000    1918.0423   -637.33346    299013.22    15.111566 
15023500    1883.2488   -678.91549    292318.12      15.3756 
15024000    1900.5149   -658.89191    302822.94    15.216521 
15024500    2069.3298   -694.51177    293375.53    15.568882 
15025000    1907.1153   -651.24238     307597.6    15.229906 
15025500    1945.0579    -682.6661    298591.77    15.437832 
15026000    2163.5012   -721.13614    307522.12    15.586713 
15026500    2030.4687   -668.48005    303140.37    15.254745 
15027000    2138.0769   -676.49038    304491.22    15.278796 
15027500    1971.8557   -711.39293    296092.67    15.593757 
15028000    2118.3221   -633.23622    307137.55     14.95679 
15028500    1974.7622   -619.46842    302446.29    14.864328 
15029000     1978.492   -670.14191    297013.08    15.100721 
15029500    1882.4842   -677.60875    300282.38    15.099202 
15030000    2042.2637   -732.07338    301137.03     15.46045 
15030500    2061.7778   -743.98919    304990.13    15.616193 
15031000    2000.9123   -726.60935    299941.82    15.463365 
15031500    2106.7116   -692.73726    303027.23    15.300049 
15032000    1931.3144   -656.15792    296978.18    15.155342 
15032500    2226.4579   -754.29648    294735.53    15.846115 
15033000    2010.8408   -756.57803    294282.03    15.873418 
15033500    1948.2867   -752.44502    303129.84    15.638852 
15034000    1928.6846   -743.54848    301081.79    15.590436 
15034500    1910.1612   -798.51711    265286.05    15.861301 
15035000    2090.3551   -630.65744    312021.17    14.838289 
15035500     2057.104   -631.80277     299745.9    14.893973 
15036000     1937.069   -630.58028    298528.64    14.946487 
15036500    2045.7848    -667.8728    306711.36    15.273023 
15037000    2033.5225   -686.37479    303408.02    15.385703 
15037500    1959.0669   -748.30657    300950.99    15.890635 
15038000    1948.5645   -707.24923    297729.93    15.802338 
15038500    1848.0833   -666.37871    300788.09    15.334147 
15039000    1958.5933   -603.14597    305581.79    14.899478 
15039500    2071.2916    -703.7139    301339.07    15.646841 
15040000    2075.1456   -720.92759    300346.91    15.746558 
15040500    1881.8301   -709.70231    299429.16     15.72296 
15041000    2109.2739    -720.4917    298851.77    15.774414 
15041500    2163.3953   -693.76516     302196.4    15.657833 
15042000    2047.9441   -697.92334    305320.16     15.68684 
15042500    2133.0161   -681.12749    306392.98    15.469128 
15043000    2167.6644   -716.11803    301246.03    15.692792 
15043500    1940.8526   -699.51731    300740.11     15.51704 
15044000    2052.3457   -700.36328    299008.81    15.635403 
15044500    2152.9189   -632.02495    299411.28    14.980942 
15045000    1956.7598   -681.00993    303735.08    15.335165 
15045500     2111.157   -675.40293    308278.93    15.269439 
15046000    1996.2786   -689.40049    303398.62    15.397359 
15046500    1993.3274   -648.73776    298664.01    15.162568 
15047000    1964.5405   -667.82205    297788.01    15.253527 
15047500    1965.5836   -682.37049    295081.05    15.444588 
15048000    2033.7179   -700.71101    292263.61     15.53755 
15048500    1931.8509   -632.80565     303695.7     15.03372 
15049000    2106.5909   -642.16565    307275.02    14.956129 
15049500     1955.137   -637.88689    301329.47    15.054089 
15050000     2070.966   -630.52022    299920.61    15.019907 
15050500    1842.8706   -612.81982    301769.22    14.779417 
15051000    1945.6893    -636.3572    301167.02    14.888997 
15051500    1801.5807   -666.58229    302668.41    15.038547 
15052000    1806.7783    -663.7756    299534.29    14.939363 
15052500    2040.0179   -709.26056    304885.11    15.184651 
15053000     1945.688   -728.41605     304439.6    15.246404 
15053500    1803.9631    -755.8547    294919.27    15.672117 
15054000    2041.5146   -752.18802    302350.42       15.574 
15054500    1976.0188   -704.40924    299595.69    15.177112 
15055000    1966.2953   -652.45182    297307.98    14.774204 
15055500    2000.5319   -674.43459    299571.61    14.863319 
15056000    2033.8004   -732.50487    300009.05    15.198615 
15056500    1905.7565   -686.48442    299522.58    14.955265 
15057000    2143.0534   -720.74012    298754.57    15.198391 
15057500     2004.555   -728.73105    300910.23    15.473241 
15058000    1970.1976   -751.13031    300221.07    15.557756 
15058500     2076.857   -737.45735    298651.59    15.453402 
15059000    2155.8679   -765.03336    297832.94    15.650921 
15059500    2116.4772   -734.26233    301153.97    15.397083 
15060000    2063.6952   -765.45711    300161.62    15.671555 
15060500    2050.0797   -719.94918     301825.6    15.295605 
15061000    2117.6916   -731.17997    303567.49    15.280721 
15061500    2033.5008    -716.4937    308431.41    15.141439 
15062000    1796.8834   -764.08783    302499.42    15.643313 
15062500    2062.2696   -644.74804    306685.53    14.723997 
15063000    1986.3457   -705.13988    296136.64    15.087698 
15063500    1956.5768   -660.47163    301882.87    14.812038 
15064000    2080.2999   -656.27775    304803.24    14.842165 
15064500     1988.924   -649.05256     294011.5    14.882584 
15065000     2034.945   -610.62677    304527.83    14.615932 
15065500    2002.9387   -689.82993    295647.53    15.079251 
15066000    1982.7246    -670.1375    303853.65    14.886936 
15066500    1882.3061   -677.77218    294391.62    14.925107 
15067000    2033.4608   -771.87638    301442.59    15.777308 
15067500    2097.8604   -761.44891    302495.92    15.747604 
15068000    1961.7851   -713.16936    304775.08    15.261729 
15068500    2022.3806   -754.34603    297123.81    15.528075 
15069000    1979.1001   -733.55095    296229.65    15.348437 
15069500    1934.0951   -666.52465    299255.61    14.907379 
15070000    1926.7362   -651.53755    303337.02     14.70576 
15070500    1857.7766   -665.45489    302462.42    14.797328 
15071000    1941.9553   -682.60105    293434.73    14.847679 
15071500    2023.1876   -660.61907     310375.3     14.79402 
15072000    1964.8842   -636.20789    308192.48    14.696096 
15072500     1999.351    -634.5915    295093.58    14.714524 
15073000    1904.4589   -644.54941    301873.22    14.702396 
15073500    1856.8962   -598.96247    311567.98    14.480756 
15074000    2049.7365   -671.60429    300556.44     14.84751 
15074500    1943.3214   -678.85169    298262.41    14.868316 
15075000      2009.87   -678.40656    296544.11    14.916948 
15075500    1962.0213   -606.39722    296494.51    14.521786 
15076000     2097.293   -619.64352    294386.65    14.627157 
15076500    2135.8117   -578.63856    301758.08    14.540282 
15077000    2142.5031   -638.37469     302738.5    14.719071 
15077500    1991.0148   -631.58975    301459.45      14.7779 
15078000    2060.8734   -593.89425    295893.58    14.611638 
15078500    1894.0872   -592.44278     308111.3    14.518732 
15079000    2094.0653   -624.12352     299872.3    14.569684 
15079500    2118.7084   -662.58428    290893.13    14.793006 
15080000    1929.6158   -666.58744    300268.44    14.858331 
15080500    1904.9982   -635.18493    293304.85    14.663946 
15081000    2028.4732   -655.58568    300704.37    14.744574 
15081500    1909.8714   -591.37413    300275.23    14.506604 
15082000    2143.9448   -621.27842    304588.43    14.660048 
15082500    1862.6138   -574.07749    310361.99    14.504267 
15083000    1917.1961   -633.92333    278754.77    14.725872 
15083500    2160.8799   -687.80932    288620.73    15.018405 
15084000     1905.631   -570.66093    302272.36    14.541714 
15084500    2024.8698   -579.58665    290666.11    14.559291 
15085000    1952.9711   -562.09833    291821.61    14.592337 
15085500     1918.565   -569.60302    302821.07    14.548765 
15086000    1964.0718   -561.22868    297288.78    14.588267 
15086500    1943.1569     -592.458    308686.05    14.692003 
15087000    1891.4937   -719.83992    294310.47    15.636938 
15087500    2037.0432   -747.45936    304632.21    15.791006 
15088000    1946.2186    -753.6158    297352.44    15.585445 
15088500    2230.3014   -766.74136    302440.97    15.545374 
15089000    2206.0654   -757.63139    284425.57    15.526081 
15089500    2088.8791   -753.16081    299132.92    15.559143 
15090000     2157.706   -757.66665    295756.61    15.539605 
15090500    1929.8359   -749.93642    303154.22    15.422292 
15091000    1851.2748   -755.97535    297813.23    15.412381 
15091500     2151.133   -682.49133    300918.86    14.832823 
15092000    2125.8338   -697.51789    302316.44    14.863818 
15092500    1884.0451   -753.32563    296861.43    15.333449 
15093000    1896.8634   -721.36275    296751.22    15.086776 
15093500    1794.6412   -722.78629    299019.29    15.063246 
15094000    2065.9438   -747.46506    305844.82    15.095191 
15094500    2031.6182   -723.41666    294417.29    14.906746 
15095000    1883.3783   -681.92501    305900.01    14.777241 
15095500    2057.1318   -715.72904    291669.58    14.875797 
15096000     2003.145   -698.41825    308819.07    14.796164 
15096500    1991.6734   -797.23823     287983.9    15.558292 
15097000    1947.8109   -694.07376    297292.16    14.924922 
15097500    1967.4275   -704.17323    303511.73       15.068 
15098000    2179.1529   -747.10391    310226.27    15.508198 
15098500    1976.9843   -710.03092    296270.93    15.250768 
15099000     1905.841   -705.92921    295712.51     15.24562 
15099500    1938.1917   -756.66324    296044.64    15.592718 
15100000    1946.3648   -756.93733    302743.81    15.563579 
15100500    2090.9033   -796.14595       279682    15.839258 
15101000    1987.3307   -739.82504    300657.58      15.2991 
15101500    1973.8202   -708.56259    301583.23    15.131429 
15102000    2235.3004   -705.61811    298698.94    15.265709 
15102500     1906.711   -727.29462    297740.86    15.257042 
15103000    1938.8814   -762.53108    292584.41    15.459731 
15103500     2133.001   -787.00601    308868.26    15.762862 
15104000    2078.0533   -792.24711    304775.21    15.769793 
15104500     1998.812    -756.1307    305237.82      15.4532 
15105000    1888.9978   -759.47024    304039.51    15.477781 
15105500    2102.1752   -741.28462    303504.89    15.308788 
15106000     2099.795   -705.76488     298661.8    15.081892 
15106500    1945.5457   -653.26054    314217.64    14.722414 
15107000    2143.3201   -643.90762    312937.91    14.759568 
15107500    2188.5927   -689.58262    303808.98     14.96215 
15108000    1954.7211   -667.48503    293740.69    14.949144 
15108500    1911.4762   -687.20906    298506.36    14.986735 
15109000    1969.8481   -700.31598    303309.94    15.019813 
15109500     1793.287   -692.48324     293553.5    14.901641 
15110000    1819.6413   -709.84998    295726.69    14.995019 
15110500    1784.8543   -718.50877    291671.51     15.15256 
15111000     2017.906   -696.70833    302577.58    14.962713 
15111500    1806.3883   -678.95713    297541.12    14.801211 
15112000    1987.3078   -730.43656    294761.88    15.181062 
15112500    1898.7773   -688.96901    296028.74    14.945775 
15113000    2187.4863   -674.23137    300969.31    14.793324 
15113500    2238.1332   -689.87629    293422.41    14.917561 
15114000    1935.6107   -721.90079    293740.19    15.162465 
15114500    2050.8204   -778.99563    289977.72    15.646307 
15115000    1949.0616   -786.01781    302076.28    15.643624 
15115500    2097.2544    -792.6583    298926.15    15.596536 
15116000    2042.4415   -751.62787    302145.33    15.422177 
15116500     1986.517   -795.47666    304385.35     15.75222 
15117000    2058.0119    -782.1497    297143.73    15.538541 
15117500    2037.5695   -741.09121     306807.6    15.130093 
15118000    2101.3667   -746.83348    297144.87     15.24692 
15118500    2107.1153   -761.00418    293664.21    15.324057 
15119000    2087.2024   -774.00784    305037.44     15.44728 
15119500    2122.3744   -794.53914    293860.57    15.633461 
15120000    1831.4527   -793.39669    291668.85    15.792358 
15120500    1884.3487   -791.60866    309773.98    15.740739 
15121000    1985.7313   -785.47524    298945.64    15.722777 
15121500    2034.3906     -731.518    302317.67    15.340686 
15122000    1991.1941   -661.66317    294428.22    14.807345 
15122500    2164.5122   -683.72677    295744.86    14.882608 
15123000      1924.62   -661.55937    310744.65    14.736978 
15123500    2093.1333   -681.00589    295032.29    14.823917 
15124000    1907.7072   -675.22829    294688.91     14.81142 
15124500    2135.8442   -685.57908    298749.69    14.910741 
15125000    2135.7648   -766.99352    303409.95    15.659898 
15125500    2128.0764   -753.98635    298273.03    15.620156 
15126000     1962.385   -769.43083    304936.52    15.835129 
15126500    1974.0907    -776.6515    316033.09    15.827485 
15127000    2103.4091   -769.22713    308920.55     15.84272 
15127500     1971.453   -763.29764    295494.44    15.821182 
15128000    2059.1487   -762.00439    303634.91    15.785602 
15128500    2096.0779   -739.57472    307067.51    15.579651 
15129000    1980.1815   -749.84288    294688.79    15.716393 
15129500    2112.0815   -760.17563    307010.86    15.748254 
15130000    2012.3074   -742.78516    300947.08    15.758615 
15130500    1927.8233   -755.90054    292101.28    15.916497 
15131000    2301.6554   -743.20673     300178.1    15.893455 
15131500    1895.2614   -729.68704    292418.88    15.802858 
15132000    2192.1248   -757.97152    302649.55     15.86464 
15132500    1911.4452    -713.3327    298296.12    15.699542 
15133000    2005.4802   -683.65218    299738.72      15.5217 
15133500    1991.3971   -624.20282    290466.86     15.04271 
15134000    1885.3867   -672.78981    292751.11    15.435643 
15134500    2192.2237   -717.79948    306081.36      15.7278 
15135000    2135.1648   -653.76852    299645.91    15.169824 
15135500    1970.3447   -723.57876    301472.16    15.690395 
15136000    1966.7695   -713.21414    296834.72    15.783499 
15136500     2031.297   -728.67547    307042.64    15.716909 
15137000    1947.3184   -725.85811    305797.23    15.723812 
15137500    2026.2761     -732.239    297772.95    15.443296 
15138000     1907.209   -726.71171    296719.25    15.515664 
15138500    2156.4506   -749.83501    297860.51     15.46744 
15139000    1859.6421    -745.4451     303340.4     15.43889 
15139500    1934.5227   -754.50587    295830.69    15.443272 
15140000    1881.7295   -755.33212    295178.85    15.408122 
15140500     2133.776   -741.05353     305009.8    15.441636 
15141000     1993.597   -742.19324    301462.43    15.410695 
15141500    1957.0904     -750.942    296172.99    15.461398 
15142000    2060.2071   -770.11503    299969.53    15.673684 
15142500    2052.2835   -756.98129    300728.76    15.503235 
15143000    2122.1833   -755.58025     300317.8    15.352071 
15143500    1956.9409   -715.34788    300764.29    15.024441 
15144000    2069.8927   -749.13309    299354.59    15.353546 
15144500    1962.1648   -746.49106    296977.86    15.311627 
15145000    1905.6442   -745.90075    309484.87    15.341007 
15145500    1910.8513   -750.73895     306204.9    15.401613 
15146000    2137.5202   -747.14616    306906.89    15.398868 
15146500     1954.146   -753.85905    292797.46     15.53395 
15147000    1933.6726   -747.80763    300209.01    15.475798 
15147500    1968.0279   -751.91135    298002.71    15.408004 
15148000    2162.4998   -710.33426    301353.07    15.112221 
15148500    2093.7302    -719.4419    300343.92    15.050631 
15149000     2006.464   -679.70963    293129.31    14.848144 
15149500    2117.6528   -740.41943    305327.65    15.328051 
15150000    2146.1419   -756.95958    290145.34    15.492019 
15150500    2096.4517   -748.28968    294982.29    15.483642 
15151000    1999.9046    -787.0366    303436.19    15.787018 
15151500    1888.2604   -704.04201     298912.3    15.022852 
15152000    2019.5723   -701.82143    304832.86    14.977427 
15152500    1980.8299   -731.58082    298023.58    15.217553 
15153000    2077.6081   -730.23327    300947.49     15.15497 
15153500    1984.1257   -747.35806    300194.58    15.396299 
15154000     2059.516   -754.50364    290840.03    15.456252 
15154500    2202.3235    -722.1542     302269.5    15.095887 
15155000    2150.7102    -756.9433    297292.04    15.456544 
15155500     2090.792   -744.93563    305959.24    15.356727 
15156000    2114.3795   -766.34215    294965.46    15.647616 
15156500    1951.9969   -708.34408     299523.8    15.257345 
15157000    2197.4443   -719.73808    297639.66    15.253976 
15157500    1930.4307   -706.01425    298658.39    15.088271 
15158000    1876.5609   -681.47362    297297.16    14.814121 
15158500    2034.3471   -647.36036    303791.35    14.690702 
15159000    1908.9843   -741.00856       302489    15.412474 
15159500    2021.7785   -754.79669    302467.64    15.439696 
15160000    1911.6758   -755.43632    283454.86    15.600963 
15160500    1905.1891   -777.05505     283304.4    15.670127 
15161000    2174.5546   -786.59632    296170.09     15.70683 
15161500    1860.1677   -778.03504    303688.86    15.521855 
15162000    2057.9448   -776.81634    303587.79    15.498987 
15162500    1975.1086   -749.81738    296360.57    15.199373 
15163000    1992.6791   -740.41714    302053.62    15.177415 
15163500     2017.208   -733.46756    298730.25    15.183709 
15164000    1954.6948   -702.55419    295503.45    15.004993 
15164500    1869.5959   -713.89432    298334.96    15.086554 
15165000    2036.1875   -750.86027    304196.45    15.359354 
15165500    1882.6646   -758.24494    298033.36    15.387949 
15166000    2172.1133   -741.81226     299918.8    15.168723 
15166500    1916.6801   -708.05061    302096.95    15.129177 
15167000    1941.7125   -719.83007    301104.71    15.166972 
15167500     2028.764   -754.33443    299354.29    15.359236 
15168000    1932.9231   -693.01721    297834.95    14.912317 
15168500    2054.7224   -678.06875    304942.54    14.796225 
15169000    2072.5443   -676.06463    305558.74     14.80774 
15169500    1808.5529   -744.52229    299547.64    15.257664 
15170000    2058.6555   -709.15936    295860.76    14.951676 
15170500    2047.7054   -769.21746     296143.8    15.338006 
15171000    2098.9956   -745.45794    309948.46    15.074519 
15171500    1792.1818   -746.88793    307915.56    15.104215 
15172000    1879.9027   -759.04685    294295.56    15.162138 
15172500    2075.9632   -743.26566    304590.08    15.124674 
15173000    1952.1208   -759.55729    299373.99    15.121697 
15173500    2138.2922   -760.87535    293900.36    15.191453 
15174000    2000.1576     -754.675    299379.07    15.150752 
15174500    1918.1038   -740.90946    300493.68    15.092877 
15175000     2024.489   -773.11031    297249.12    15.312804 
15175500    1975.7149   -693.06568    293100.39    14.912625 
15176000    1990.9706   -724.31983    301457.89    15.079985 
15176500      2043.76   -756.34258    298898.98     15.42416 
15177000    1786.2458   -714.11428    298156.21    15.072664 
15177500    1869.7197   -678.77886    300248.77    14.954084 
15178000    2030.1404   -693.59778    297414.86    14.907161 
15178500    1853.5423   -727.97508    295637.04    15.200373 
15179000    2115.1469   -725.39119    296132.91    15.175037 
15179500    1951.5648   -715.10102    296426.87     15.16003 
15180000    1864.1653   -701.90193    294096.92    14.979937 
15180500    1988.1095   -709.60029    299434.66    14.991275 
15181000      1831.61   -705.92321     310584.8    15.007708 
15181500    1968.3698   -705.83089    296367.76    15.222896 
15182000    2037.1374   -719.49831    295933.39    15.249138 
15182500     2006.197   -653.23894    305436.24    14.769008 
15183000    2128.3908    -654.6174    312793.66    14.701984 
15183500    1834.5857   -730.77235    299344.65    15.199344 
15184000    2086.4066   -753.74306    304791.92     15.33447 
15184500    1973.1347   -759.56903    301277.28    15.536275 
15185000    1909.4029   -753.32728    300027.92    15.375079 
15185500    2067.0524   -774.68349    300936.59    15.555409 
15186000    1860.7228   -682.09663    310622.93    14.755216 
15186500    1915.2177    -749.8157    296718.12    15.248507 
15187000    2108.1597   -771.73349    304135.42    15.526395 
15187500    1960.9952   -788.01011     296136.3    15.735558 
15188000    2028.3859   -758.50632    303229.79    15.499123 
15188500    2046.6837   -782.36429     300960.9    15.570155 
15189000     2099.202   -752.28918    305356.85    15.383327 
15189500    2130.7624   -755.09392    288014.32    15.532044 
15190000    2059.9853    -761.8816     284521.5    15.597452 
15190500    1928.4854    -674.9148     291664.3    15.064104 
15191000    2046.1325   -594.61555    298847.79    14.609587 
15191500    2052.3847   -592.80108    303924.04    14.593215 
15192000    2066.8663   -606.76174    288818.54    14.561019 
15192500    2018.3593   -604.93616    292826.51    14.545476 
15193000    2046.1147   -620.38722    286858.63     14.52165 
15193500      1999.23   -603.98751    297269.07    14.557387 
15194000    1929.5877   -611.58334    292353.15    14.688509 
15194500    1917.8427   -766.65402    295521.71    15.622927 
15195000    2106.4904   -790.74711    308979.52    15.824984 
15195500    1887.5258   -733.92356    304494.41    15.136723 
15196000    1947.5551   -765.24286    299598.67     15.42935 
15196500    1959.6425   -801.25722    304469.48    15.808846 
15197000    2077.1205   -765.88725    301371.64    15.443227 
15197500    1952.5985   -771.60549    300174.85     15.47605 
15198000    1961.5768   -776.42542    302334.52    15.543208 
15198500    1942.9968   -741.76773     305281.3    15.410262 
15199000     1937.852   -741.31295    296453.87    15.191387 
15199500    2131.7887   -738.56294    310011.47    15.100712 
15200000     2000.968    -760.8113    302084.51    15.562348 
15200500    2102.3309   -764.44704    298536.53    15.560228 
15201000    1950.6546   -741.68357     298190.2    15.282697 
15201500    1832.9341   -615.50068    333787.63    14.462859 
15202000    1863.5626   -733.15865    295544.36    15.167827 
15202500    1944.0256   -744.26241    306895.92    15.106625 
15203000    1970.9051   -706.18975    299332.61    15.082747 
15203500    1894.2345   -726.71615    297370.48    15.131472 
15204000    2054.5537   -660.92347    298043.67    14.666533 
15204500    2137.5174   -794.36776    295417.05    15.494936 
15205000    2026.5525   -792.99647    298344.82    15.514961 
15205500    1887.5839   -792.72197    296508.78    15.665805 
15206000    1859.9827   -776.53108    304518.33    15.489456 
15206500    1846.1511   -749.65176    299318.85     15.31796 
15207000    1884.1516   -722.55362    302909.27    15.138451 
15207500    1953.5263   -735.33477    309242.36    15.068389 
15208000    2008.0106   -743.32162    304242.26    15.112281 
15208500    2053.2985   -755.26809    295319.64     15.26518 
15209000    2051.0375   -751.90079    302195.09    15.168565 
15209500    1852.7469   -724.63351    299349.24    15.014806 
15210000    2049.5312   -745.73756    294781.71    15.198724 
15210500    2044.9911   -752.13497    301701.62    15.215061 
15211000     1849.245    -738.8507    305532.89    15.069525 
15211500    2045.8834   -727.60631     302272.2    14.999111 
15212000    2048.7846   -742.82445    311147.23    15.135089 
15212500    1930.4467   -757.46472     293616.1    15.218836 
15213000    1851.3159   -739.06825    305884.09    15.122327 
15213500    2001.4234   -674.81393    306137.19    14.783487 
15214000    2002.8713   -655.51888    300600.65     14.75716 
15214500    2010.7003    -685.4267    294703.66     14.88989 
15215000    1903.0997   -655.48682    306612.63    14.770856 
15215500    1886.7719   -679.22904     295893.6     14.85341 
15216000    2093.0373     -657.169    317005.32    14.725368 
15216500    2047.5076   -698.97733    293021.49    14.913722 
15217000    1921.3305   -692.26602    302779.94    14.842618 
15217500    1946.6689   -713.38917    289467.19    14.860323 
15218000    1908.7243   -757.81486     295506.3    15.321082 
15218500    1844.0408   -744.38477    303332.29    15.313649 
15219000    1904.6142   -723.11709    302033.88    15.013516 
15219500    2077.8784    -791.7436    311885.06    15.712306 
15220000    2055.6956   -786.51903    305051.91    15.541049 
15220500    2031.8636   -807.39771    310476.18    15.830189 
15221000    1990.1153   -763.71927    298355.72    15.484815 
15221500    2212.5097   -793.96889    300502.36    15.749692 
15222000    1942.5029    -757.0829    304556.83    15.458964 
15222500     1865.059   -755.96405    298369.26    15.508035 
15223000    2035.7944   -724.97923    304042.79    15.092368 
15223500    1967.8394   -714.89116    293183.02    14.933829 
15224000    2038.3207   -687.26569    305776.79    14.793684 
15224500    2028.2823   -702.19053    307096.37    14.793931 
15225000     2008.206    -707.2729    296229.54    14.818639 
15225500    2082.1686   -695.18958    312218.52    14.759066 
15226000    1909.0972   -728.65064    305998.34    15.063914 
15226500    2257.7311   -762.78471    301410.79    15.419131 
15227000    2014.3781   -785.23648    290493.99    15.721866 
15227500    2049.2536   -752.16148    302448.11    15.327131 
15228000    1963.8197   -745.24866    306582.09    15.080334 
15228500    1919.0305    -759.7205    295504.05    15.159503 
15229000    1936.1749   -749.34436    298738.98    15.205161 
15229500    1810.1583   -792.07423    298979.74    15.707064 
15230000    2045.7647   -795.62794    293091.69    15.820315 
15230500     2177.293   -741.40549    303420.67    15.323075 
15231000    2271.0624   -706.79602    308555.63    15.067881 
15231500    2028.2886   -698.74681    302259.67    15.027959 
15232000    1932.1919   -723.36471    295905.52    15.110362 
15232500    2190.0141   -747.95329    306149.63    15.191913 
15233000     2041.786   -744.75324    298996.27    15.188087 
15233500    2090.2819   -700.45082    299187.21    15.004681 
15234000    1987.6087   -734.11982     295264.8    15.230542 
15234500    2082.6879   -734.51297     295627.2      15.2181 
15235000    2013.9375   -734.67351    295399.95    15.166618 
15235500    1961.6539   -763.81379    298960.67    15.521105 
15236000    1862.8619   -785.51933    293747.99    15.784144 
15236500     1960.144    -787.2973    301399.13    15.823209 
15237000    2006.3299   -782.17588    277038.56    15.863323 
15237500    1784.9363   -760.24619    277350.56     15.86025 
15238000    2165.2801   -748.79377    302251.99    15.777949 
15238500    1865.7338   -679.46006    297043.19    15.182321 
15239000    2033.5494   -605.11173    308866.59    14.854298 
15239500    1974.4749   -692.72807    299297.05    15.495212 
15240000    2033.2669   -703.00112     301143.3    15.798826 
15240500    2019.2519   -701.01239    302550.16     15.81966 
15241000    2036.4259   -606.16185     300082.6    14.930551 
15241500    2137.0417   -608.65061     300951.9    15.048754 
15242000    1912.8279   -630.32775    294138.37    15.035137 
15242500    2009.8831   -664.78596    297969.56    15.115623 
15243000     1977.943   -673.58117     300594.6    15.356737 
15243500    2045.4101   -690.32656    300933.92    15.409317 
15244000     1856.449   -636.17532    299946.64    15.017401 
15244500    2009.1652    -647.9933    297375.64    15.096416 
15245000    1970.5309   -664.12816    293047.47    15.172669 
15245500    2100.1392   -635.74333    303181.32    14.953963 
15246000    1998.6477   -628.71596    296293.19    14.948035 
15246500    2038.6829   -704.87489    294844.16    15.557034 
15247000    2108.7288   -659.25019    301824.93    15.149961 
15247500    1991.6339   -626.07835    307058.12    14.956156 
15248000    2158.0204   -728.55235    297054.76    15.837393 
15248500    1951.1694   -634.72831    303037.11     15.04859 
15249000    1795.5917   -685.85936     298947.2    15.375537 
15249500    1977.9247   -672.73599    301182.75     15.38997 
15250000    2131.8851   -742.79183    299903.58    15.915629 
15250500     2151.929    -710.7851    306928.89    15.548184 
15251000    1974.1927   -647.69084    305308.16    15.102191 
15251500    1975.8483    -709.5212    296958.17     15.70915 
15252000    1907.8625   -736.84665    301505.25    15.799283 
15252500    1794.8047   -711.74842     303027.4    15.677767 
15253000    1942.4793   -731.82798    286976.83    15.925358 
15253500    2181.7985   -619.89904    299820.72    14.980111 
15254000    2089.0782   -616.99031    296315.42    14.972019 
15254500    2029.4559   -612.41493    302648.16    14.824332 
15255000    2030.2181    -634.7308    297273.46    15.099727 
15255500    2186.8894   -662.87225    301948.16    15.346647 
15256000    1983.6684   -709.98963    297779.78    15.683209 
15256500    1958.1178   -693.32104    301502.01    15.613379 
15257000    2063.9671   -732.75308    302751.33    15.796874 
15257500    2105.9485   -716.90715    297126.29    15.826277 
15258000    2115.9432   -653.08716    302401.25    15.263275 
15258500     1901.625    -738.4294    286594.48    15.999857 
15259000    1978.8375   -758.51242    298805.46    15.904034 
15259500    2046.9354   -739.39281    295952.71     15.80248 
15260000    1995.2138   -758.19263    298496.95    15.848892 
15260500    1937.1959   -720.63187    302625.64    15.531876 
15261000    1840.1374   -684.32496    299962.87    15.307839 
15261500      2172.42   -698.71077    298139.22    15.523521 
15262000    1944.2474   -711.28529    298267.44    15.643677 
15262500    1930.9961   -635.37472     304655.6    15.146729 
15263000    2146.5368   -637.18993    298633.57    15.056673 
15263500     1914.293   -619.80668    297964.81     14.83411 
15264000    2008.9059   -618.42638    293059.26    14.745595 
15264500    2307.8187    -629.7924    303227.86    14.765426 
15265000    2004.0981   -644.82841    303705.72    14.747096 
15265500    1916.2197   -635.44042    300623.16    14.859414 
15266000    2039.8273   -611.73481    304351.57    14.618312 
15266500    2085.2778   -610.48578    307520.74    14.634043 
15267000    1846.8562   -714.76112    287726.75    15.129462 
15267500    1909.0549   -697.35141    294682.41    15.005248 
15268000    1821.8632   -677.17824    308666.72    14.882809 
15268500    1974.4339   -754.29743    295732.74    15.442326 
15269000    1845.4329   -748.55674    291955.96    15.552435 
15269500    2026.7897    -723.9854    300501.79    15.289371 
15270000    1831.5733   -757.98742    298028.92    15.542865 
15270500    1898.9733    -775.4172    294456.19    15.808751 
15271000    2001.1016   -743.33306    296664.87    15.516526 
15271500    1991.7426   -766.10362    302215.36    15.698294 
15272000     1991.627   -761.00661    298176.83    15.635462 
15272500    1938.1838   -774.93634    302509.87    15.755996 
15273000    1940.9076   -719.87585    299792.33    15.201428 
15273500    2015.1328   -660.37455    300046.28    14.832006 
15274000    2031.7984    -656.9887    311917.95    14.788402 
15274500    1905.7206   -701.03753    295546.44    14.957111 
15275000    1913.0885   -679.76027       304073    14.893917 
15275500    2013.1645   -691.67438    305224.96    14.933785 
15276000    2030.1164   -712.00561    293867.25    15.048645 
15276500    2108.0672    -666.3224    314591.75    14.736146 
15277000    2138.6434   -695.27405    288876.95    14.922653 
15277500    2052.8225   -704.29947    292244.52    14.961486 
15278000    2046.7083   -681.46357     300137.4    14.853223 
15278500    2013.0437   -679.49945    301918.67    14.820153 
15279000    1753.4865   -708.72125    286904.27    15.005916 
15279500    1902.0857   -691.48336    284023.63    14.879751 
15280000    2080.5928   -656.10062    298989.54    14.745435 
15280500    2070.8381   -718.22003    298409.64    15.081834 
15281000    1905.1722   -691.73689    293365.88    14.932678 
15281500    1971.0182    -693.1477     296281.7    14.900056 
15282000     2037.118   -682.32006    301997.98    14.851212 
15282500    1972.8385   -698.87802    286951.04    14.927444 
15283000    1951.2289   -670.62071     306554.2    14.815926 
15283500     2187.807   -673.78431    305252.41    14.834063 
15284000    1978.1815   -707.53223     291499.2    14.963593 
15284500    1743.5415    -736.2863    293134.09    15.228166 
15285000    1956.2921   -673.49288    291506.71    14.834683 
15285500    1911.9812   -686.19769    311241.34    14.830231 
15286000     1985.989   -708.59621    292620.58    14.989966 
15286500    1987.5465   -673.60936    305817.99    14.807029 
15287000    2021.7835   -684.07305     299607.8     14.86593 
15287500    2210.6841   -689.91824    305336.87    14.912337 
15288000    1962.8357   -670.42719    311526.84    14.800915 
15288500    2078.3931   -695.90393    299890.91    14.911771 
15289000     1979.701   -695.58343    291328.74    14.913259 
15289500    1960.8678   -694.36012    294669.09    14.952758 
15290000    1891.2274   -653.08033    289151.16    14.769596 
15290500    2008.8636   -667.31488    300927.64    14.837389 
15291000    1902.9034   -627.73761    302100.16    14.645548 
15291500    1842.7913    -727.7472    297734.95     15.20268 
15292000    2043.1061   -668.88845     298446.7    14.844839 
15292500    1961.2856   -665.58947    310494.73    14.778438 
15293000     2031.349   -679.44524    300681.01    14.933595 
15293500    2089.1836   -703.65617     302538.9    15.109097 
15294000    2046.0666   -671.58436    297731.18    14.926725 
15294500      1963.44   -662.70513    304243.75    14.869514 
15295000    2063.4905   -694.87588    306268.83    15.070701 
15295500    2008.8311     -755.304    305335.07    15.864185 
15296000    2066.1692   -756.39856    303448.07    16.007111 
15296500    1933.1717   -744.23542    296121.41    16.031877 
15297000    1910.9912   -628.89332       295992    15.108552 
15297500    1829.3263   -612.07692    300249.62    15.008069 
15298000    1887.9386   -625.78287    297769.48    14.966844 
15298500    1968.1529   -711.70555    300533.35    15.764636 
15299000    1774.3596   -744.63314    301012.57    15.937306 
15299500    1961.7301   -748.13957    301387.44    15.989892 
15300000    2029.6344   -743.30727    302115.32    15.836874 
15300500    2132.0389   -766.57144    293026.17    16.004106 
15301000    2006.6044   -652.62691     300079.7    14.915197 
15301500    2000.5253   -654.31431    293669.97    14.842749 
15302000    1981.8911    -673.5889    298549.36     15.20023 
15302500    2033.0351   -611.03976     303157.3    14.844048 
15303000    1986.3566   -679.47832    300178.91    15.258286 
15303500    1958.6061   -699.32812    299147.08    15.414889 
15304000    2115.7843   -612.50091     300039.8    14.996874 
15304500    2092.2484   -627.90644     297695.5    14.970883 
15305000    2087.1864   -632.15108    297858.97    15.043994 
15305500    2043.3631   -749.10052    299396.24    16.012794 
15306000    1894.0858   -759.05414    298669.59     15.94947 
15306500    1828.5128   -700.25856    300091.55    15.552345 
15307000    1912.6998   -618.81876    299223.56     15.01509 
15307500    2106.1301   -682.25009    305635.02    15.285185 
15308000    1947.8096   -720.78991    299545.97    15.727424 
15308500    1922.2413   -679.42603    298396.02    15.466623 
15309000    1828.1971   -639.30364    294303.92     15.13621 
15309500    2048.0454   -545.69886    309270.14    14.561607 
15310000    1899.9867   -557.34463    289592.62    14.598639 
15310500    2073.3144   -561.27088    291557.53    14.587661 
15311000    2032.9763   -566.71494    301027.24    14.564503 
15311500    2038.5786   -552.57776    309372.55    14.586249 
15312000    1926.1995   -564.24297    290472.98    14.576278 
15312500    1989.2296   -576.30169    304512.41    14.711538 
15313000    2045.2479   -718.96229     297900.8    15.509406 
15313500    1967.9142   -682.52728    298848.25    15.360866 
15314000    2145.4918    -684.7001    301577.68    15.384955 
15314500    1938.9606   -634.17561    303908.76    15.111422 
15315000    1999.0884   -610.73845    302258.05    14.950908 
15315500    1974.6962   -740.41194    300899.58    15.919518 
15316000    2001.4513    -735.6647    307013.65    15.752672 
15316500    1945.6443   -676.78841    305141.32     15.28777 
15317000    1866.4183   -673.27397    296934.74    15.301254 
15317500    2090.8893   -678.42294    302928.82    15.348475 
15318000    2028.5552   -690.33676    299871.26    15.389242 
15318500    2048.6875   -727.45292    298647.53    15.745023 
15319000    1964.0044   -741.59925    289823.49    16.107401 
15319500     1944.508   -753.65324    298244.26    16.061104 
15320000    2013.1005    -765.1974     282465.9    16.096799 
15320500    1824.3869    -697.4716    295455.69    15.334909 
15321000    1765.1309   -565.77858    295855.93    14.573033 
15321500    1977.2123   -542.17906    311858.51    14.531477 
15322000    2040.8647   -557.86116    299252.82    14.695523 
15322500    2073.4002   -564.62004     291371.2    14.603997 
15323000    2080.8969   -659.32521    305131.95    15.384582 
15323500    1949.7088   -721.11878    302898.85     15.78627 
15324000    2136.9305   -689.42919    299877.49    15.553967 
15324500    2007.3247   -684.01947     299481.5    15.414187 
15325000    1974.1862   -730.95531    295330.54    15.847532 
15325500     1924.303   -694.01245    296497.91    15.574342 
15326000    2355.4066   -667.73268    307781.03    15.245438 
15326500    1902.7434   -702.11032    299153.82    15.515259 
15327000    2085.8416   -680.33943    300418.45     15.51972 
15327500    2145.6001   -737.98912    297638.19    16.070731 
15328000    2066.1165   -692.83907    297562.49    15.592671 
15328500    2021.0163   -625.67715     300842.5    14.957782 
15329000    1942.2529   -615.29677    306214.17    14.912653 
15329500    2009.2502   -667.64227    302155.42     15.35617 
15330000    1877.8467   -715.88049     298007.8    15.781963 
15330500    1908.4322   -669.63972    297368.56    15.438165 
15331000    1874.0707   -695.68047    294623.67    15.411087 
15331500    1872.0659   -637.53738    299829.67    15.022134 
15332000    1979.8395   -719.89957    296895.46    15.671782 
15332500    1889.0361   -708.37355    300626.52    15.631722 
15333000    1898.0041   -752.09281    300352.83    15.733901 
15333500    2056.4159   -692.15349    301802.25    15.269948 
15334000    2056.8758    -632.5757    305286.13    14.969185 
15334500    1983.3748    -622.9704    302930.65    14.928857 
15335000    1977.8184   -704.40931    299928.76    15.495483 
15335500     2039.279   -673.84556    299450.11    15.445702 
15336000    1957.6479   -722.87624    300174.92    15.701379 
15336500    2049.3013   -655.19745    309668.28    15.267663 
15337000    2113.9795     -647.397    304190.05    15.179744 
15337500    2001.8029   -697.22666    303594.68    15.419082 
15338000    1800.1224   -728.16717    296277.09    15.724382 
15338500     1878.834   -634.84442    296681.21    14.998238 
15339000    2019.9754   -703.47584    288846.61    15.529221 
15339500    2020.3306   -746.21543    290874.28    15.666498 
15340000    2117.1628   -706.44236    302570.02    15.306945 
15340500    2134.3052   -742.68518    306187.63    15.415937 
15341000    2228.0445   -758.10282    297623.94    15.434712 
15341500    2065.8791   -781.98996    301403.41    15.481529 
15342000    2140.3177   -747.91794    305740.54    15.142036 
15342500    1892.4839   -696.89799    302548.26    14.823696 
15343000    1953.7758   -683.28817    301695.89    14.812807 
15343500    1882.4612   -691.79207    305983.88     14.84336 
15344000    1870.9545   -709.12097    311488.68    14.767876 
15344500    1982.5217   -699.59966     300089.5    14.790742 
15345000    2015.9387   -690.74832     300437.4    14.889815 
15345500    2120.7213   -742.15848    300518.28    15.236634 
15346000    1987.5151    -726.0396    294744.41    15.209169 
15346500    1831.8915   -752.43738    302210.67    15.374123 
15347000    2081.0237   -794.10941    289626.35    15.843055 
15347500    2157.5661   -787.87378    279708.79    15.743917 
15348000    2234.6311   -748.73922    301473.35    15.208084 
15348500    2089.8884   -773.26893    299264.96    15.554891 
15349000    1925.3796   -751.24025    300709.23    15.370313 
15349500    2011.2206   -749.17215    298304.95    15.325435 
15350000    1826.8703   -733.49445    297093.31    15.141738 
15350500    2038.6057   -731.46663    306755.92    15.124548 
15351000    2044.8603    -762.3799    298464.38    15.455965 
15351500    1919.8655   -791.51125    292989.09    15.827048 
15352000    2091.9676   -741.57084    304160.98    15.150353 
15352500    2024.5148   -781.99332    303698.71    15.647636 
15353000    2025.9211   -794.45349    279831.64     15.77903 
15353500     2006.857   -769.29909    294736.07    15.827838 
15354000    1829.3221   -759.59168    302789.84    15.799147 
15354500     2012.268   -762.88159    297572.56    15.880492 
15355000    2029.3955   -660.29048    299078.58    15.238982 
15355500    1956.6251   -649.61396    303191.35    15.060413 
15356000     1983.204   -737.21208     300183.4    15.883233 
15356500    1790.2703   -679.14428    296433.88    15.505888 
15357000    2132.0219    -681.0226    299678.63    15.414854 
15357500    1993.9375   -664.37828    304863.78    15.395632 
15358000    2116.4089   -697.82872    300214.09    15.570605 
15358500    2074.4646   -752.50652    287297.65     16.12046 
15359000    1998.2454   -715.39411    304530.33    15.815911 
15359500    1845.7399   -653.59136    300648.13    15.319603 
15360000     2063.272   -682.81993    300955.82    15.451114 
15360500    2120.9917   -603.82352    299030.43    15.020536 
15361000      2175.51   -620.49619    299088.69    15.000517 
15361500     1797.092    -620.7094    294869.68    14.956947 
15362000    2096.4285   -635.87603    294841.08    15.116439 
15362500    2128.0206   -671.20745    302710.24    15.311004 
15363000    2094.9691   -731.54758    297329.76    15.870783 
15363500    1990.9481   -727.97604    295113.42    15.605025 
15364000      2137.01   -666.83657    301318.92    15.236662 
15364500    1997.1214   -616.47056    300638.65    14.939029 
15365000    1839.8109   -587.81877    308712.93    14.930971 
15365500    1864.3878    -600.4362    304919.08    14.929595 
15366000    2110.2054   -685.68714    298425.13    15.410398 
15366500    2001.2668   -682.50915    297394.46    15.483188 
15367000    1940.2285   -731.81662    296218.37    15.951679 
15367500    1935.1875   -707.41281    299876.69    15.775986 
15368000    1840.0537   -603.12275    301996.06     14.98866 
15368500    2011.0188    -603.4928    307500.65    14.981266 
15369000    1838.7214   -686.72975    299591.95    15.590033 
15369500    2126.4434   -720.75213    287953.35     15.94873 
15370000    1990.0951   -671.24088    300516.94    15.444924 
15370500     1928.843   -694.50754    296055.27    15.544912 
15371000    1984.6177   -670.72168    298471.68    15.479734 
15371500    1995.6157   -751.30731    300001.07    16.009204 
15372000    1958.7386   -671.97978    304139.09    15.311332 
15372500    1834.0544   -716.59725    301217.86    15.732605 
15373000    2154.4793   -751.57141    303601.46    15.823791 
15373500    1854.0013   -664.57968    303514.15    15.308236 
15374000    1971.3787    -671.4918    302306.83    15.293973 
15374500    2335.8087   -699.86732    295533.59    15.585046 
15375000    2147.5637   -634.06989    307701.03    15.029194 
15375500    1895.2674   -703.63871    297621.27    15.541278 
15376000    2091.6153   -659.58496    302555.12    15.237415 
15376500    1975.0633   -695.62602    292162.57    15.590763 
15377000    2133.7728   -640.23538    301658.76    15.125907 
15377500    2005.0137     -690.509    299866.34      15.4292 
15378000    2021.1291   -641.44834    294133.59    15.079527 
15378500    2080.9759   -677.32459     298912.9    15.217869 
15379000    1841.0926   -663.69648    300614.78    15.240264 
15379500     2132.008   -731.23645    301437.59    15.694362 
15380000    1898.5256   -636.98034    297357.37    15.153204 
15380500    1919.4488   -692.16258     293299.5    15.390756 
15381000    2092.8156   -702.30578    304893.65    15.458594 
15381500    1773.0138   -699.91522    293025.87    15.644749 
15382000    2001.3241   -615.73658    295493.66    14.921689 
15382500    1949.6113   -648.09686    287642.21    14.955249 
15383000     1958.759    -641.2763    304568.58    14.894116 
15383500    2026.2968   -649.23817    298233.62    15.084215 
15384000    1930.3528   -613.07277    300223.62    14.911122 
15384500    2007.0205   -608.66293    302706.46    14.813242 
15385000    2152.5735    -669.0777    296095.29    15.087125 
15385500     1915.108   -635.70727    298969.12    15.007103 
15386000    2059.4547   -651.77381    300196.47    15.039573 
15386500    2105.0613   -719.52476    301216.65    15.463484 
15387000    1971.2408   -601.86625    312171.51     14.86119 
15387500    1939.0152   -633.52167    295408.99    15.040999 
15388000    2044.0932   -670.15437    298926.39     15.43303 
15388500     1994.258   -667.67517    302702.12    15.434408 
15389000    2064.9964   -700.33552    304598.42    15.665169 
15389500    1957.2549    -715.8294    297557.75    15.847172 
15390000    2140.0695   -702.42778    304299.65    15.769398 
15390500    2216.2973   -727.64623    304596.93    15.652447 
15391000    1904.8566   -732.77362    294641.21    15.965027 
15391500    2061.4748   -669.33814    296819.22    15.363875 
15392000    2220.8367   -671.78077    302514.12    15.186868 
15392500    1931.8413    -693.9016    297850.83    15.493806 
15393000    2095.5652     -618.076    302529.71    15.034768 
15393500    2068.5154   -636.02352    300110.93    15.147389 
15394000    2039.8295   -733.80371    299615.22    15.879701 
15394500    1928.2584   -719.38927    298261.45    15.756288 
15395000    2030.5506   -700.68729    297604.19    15.475668 
15395500    2050.2168   -689.34335    300885.42    15.498961 
15396000    1938.1874   -672.93082    298572.55    15.361545 
15396500    2075.5259    -675.0803    302916.94    15.288531 
15397000    1909.8514    -630.5075    295623.94    14.915566 
15397500    1908.5835   -644.71759    294014.21    14.892236 
15398000    1969.7343     -655.607    305635.78    14.833795 
15398500     2166.595   -757.48632    299466.74    15.777542 
15399000    1953.0498   -749.27875    300184.13    15.755735 
15399500    2082.1653   -730.31697    300712.54    15.808097 
15400000     2048.695   -666.46465    301562.22    15.286512 
15400500    2103.2124   -688.98592    301761.79    15.453176 
15401000    1859.1127   -681.78488    302225.67    15.582653 
15401500    1906.7927   -602.04844    300957.34    14.921467 
15402000    1809.4857   -655.46101     298582.3    15.283215 
15402500    1924.8606   -672.95517    299301.18    15.404637 
15403000    1896.1596   -590.58134    309095.09    14.834623 
15403500     2161.712   -619.19789    304699.34    14.904206 
15404000    2076.0339   -603.00536    310685.09       14.961 
15404500    2036.0433   -696.44304    297878.95    15.595001 
15405000    1914.9859   -653.02161    303716.48    15.155513 
15405500    2097.1051   -620.02357       306510    14.930735 
15406000     1837.732   -588.93203    295111.65    14.716131 
15406500     2299.445   -576.81161    313532.64    14.487725 
15407000    2056.4613   -584.10727    304022.25    14.569217 
15407500    2046.0652   -587.81461    305432.69    14.691247 
15408000    2227.5811   -572.99554    317793.73    14.504524 
15408500    1943.3956   -587.05719     293258.9    14.559477 
15409000    2035.2313   -671.29614    299745.31    14.989935 
15409500    1930.9194   -600.53075    307884.13    14.609692 
15410000    1963.7415   -592.15429    300596.56    14.522401 
15410500    1959.5567   -605.18666    300488.37    14.596942 
15411000    2003.8005   -618.43919    302692.66    14.630984 
15411500    1964.1301   -675.03985    296481.63    14.899038 
15412000    1881.0649   -772.18403    283731.53    15.641278 
15412500    2010.7911   -768.57406    300670.61    15.581103 
15413000    1942.5368   -761.41653    295860.84    15.518363 
15413500    2035.3948   -760.38002    298300.38    15.607045 
15414000    2091.9321   -732.13676    306753.79    15.347385 
15414500    1969.4883   -743.41353    299757.68    15.453595 
15415000    1969.2403   -766.28391    297311.81    15.650677 
15415500    2065.9025    -750.1229    302312.33    15.528008 
15416000    2100.1428   -755.36677    298597.41    15.567051 
15416500    1848.1563   -759.52393     296288.8     15.56133 
15417000    2011.8357   -753.04699    294008.79    15.460891 
15417500    1993.1268   -644.20297    299349.99    14.728185 
15418000    1948.0025   -606.68423    316118.64    14.548801 
15418500    1757.0921   -629.01711    298037.92    14.674534 
15419000    2019.9487   -673.00427    299016.37    14.907407 
15419500    1976.0363   -640.79242    304969.44    14.715052 
15420000    1945.0473   -642.04591     301066.7    14.730132 
15420500     2051.123   -654.15907    302499.78      14.7546 
15421000    1798.6202   -635.55429    291006.01    14.710223 
15421500    2136.0154   -642.98851    304773.53    14.667192 
15422000     1868.176   -666.59777    298435.66    14.934491 
15422500    1967.6448   -574.24049    327777.23    14.479831 
15423000    1922.2884   -684.60729    299271.26    15.160612 
15423500     2148.391   -617.19604    298711.66    14.688643 
15424000    2083.6031   -612.05169    307114.29    14.591827 
15424500    1955.3053   -653.98049    297993.04    14.835734 
15425000    2004.1629   -611.36203    301000.03    14.741672 
15425500       1906.2   -770.81859    285973.18    15.989833 
15426000     2031.125   -742.53154    300466.02     15.61559 
15426500    2065.5352   -756.98034    298471.64    15.766529 
15427000     2098.581   -731.69587    305593.81    15.320698 
15427500    2135.2719   -715.36228    304149.83    15.213553 
15428000    1943.1939   -593.61021    303341.06     14.55011 
15428500    1971.7258   -679.14782    301948.67    14.974083 
15429000    1811.2704   -690.56675    301206.28    15.026033 
15429500    1869.3354   -712.62159    299473.84    15.125772 
15430000    1856.0521   -711.11421    300510.84    15.128097 
15430500    2020.6512   -752.31989    297819.86    15.459908 
15431000    1937.0805    -739.4847    295959.05    15.402938 
15431500    2046.2606   -743.44856    297927.97    15.433597 
15432000    2154.6902   -672.07581    316084.37      14.8809 
15432500    1868.7135   -685.16616    296297.02    14.982988 
15433000    2161.3822   -712.03377    305413.31    15.146682 
15433500    2081.0163   -654.54272    307436.93    14.794354 
15434000     2001.714   -603.16703    296927.36    14.693262 
15434500    1788.1427   -715.89953    297879.97    15.448601 
15435000    1980.3971    -760.3321    296917.68     15.66793 
15435500    1936.4966   -688.12522    292821.57    15.072836 
15436000    1936.7886   -695.31501    299863.57    15.029966 
15436500    2225.4695     -675.108    301151.01     14.89498 
15437000    1971.2132   -598.92685    294593.51    14.621198 
15437500    2164.2965   -596.55216    295881.52     14.64214 
15438000    2069.5315   -615.29458    297206.34    14.936267 
15438500    2003.7269   -616.74318    298140.42    15.016318 
15439000    1968.0276   -602.60609    307334.92    14.856642 
15439500    2006.5113   -684.62546    295882.33    15.348333 
15440000    1838.8519   -690.34215    291776.92    15.662832 
15440500     2116.667   -646.12952    301635.88    15.169139 
15441000    1981.6025   -698.66813    293615.28    15.514694 
15441500    1836.2177   -692.73148    295239.83    15.461591 
15442000    1929.9357   -680.83095    304383.94    15.356869 
15442500    2179.2906   -638.64131    300443.12    15.087174 
15443000     1903.971   -626.74892    300771.23     14.94382 
15443500    1844.9325   -653.06721    296986.55    15.114823 
15444000    1809.7669   -667.73042    296867.64    15.141507 
15444500    2117.6298   -640.81058    308030.34      14.9346 
15445000    2076.7572   -693.60745    299546.11    15.345163 
15445500    2015.9027   -678.54172    302314.01    15.255697 
15446000     1945.453   -683.08406    301768.07    15.254163 
15446500    2139.4016   -689.61316    301546.34    15.263647 
15447000    2171.6959   -755.29951    305660.36    15.733193 
15447500    2090.1606   -735.41235    307620.19    15.638109 
15448000    2027.5942   -772.42227    297445.28     15.87597 
15448500     1932.287     -761.525    307902.05    15.750813 
15449000    1891.5399   -769.40078    300946.82    15.826933 
15449500    1868.7413   -764.98827    302525.01    15.790301 
15450000    1935.8761   -779.19598    301740.81    15.809831 
15450500    1942.7386   -788.20947    276574.34     15.88149 
15451000    1801.2016   -762.33587     304223.2    15.781102 
15451500    2000.9892   -758.54744    306197.11    15.812558 
15452000     1933.784   -758.88244    300552.13    15.876711 
15452500    1923.2381   -673.27898    301438.19    15.302217 
15453000    2029.5867    -667.9857     299811.7    15.261433 
15453500    2077.8417   -669.67727    304222.77    15.282872 
15454000    2154.9107   -685.07122    304981.06     15.36195 
15454500    2121.4078   -710.34962    292250.63    15.545417 
15455000    2044.8481   -631.37001    303893.11    14.947495 
15455500    1962.5241   -688.77387    297804.14    15.353496 
15456000     2102.751   -689.73535    299189.94    15.434298 
15456500      2024.16    -687.2445    304215.81     15.46946 
15457000    1911.5037   -677.11506    305626.28    15.280104 
15457500    1836.4283   -703.39487    298051.45    15.463183 
15458000     2106.793   -750.80145    304502.89    15.697073 
15458500    2267.7837   -727.43248    306305.41    15.522807 
15459000     1772.049   -708.57726    291450.72    15.532755 
15459500      1968.94   -729.11522    304203.72    15.664099 
15460000    1900.2413   -686.25193    301302.89    15.344869 
15460500    2030.4042   -684.73516    298044.04    15.402286 
15461000     1900.711   -673.86775    301961.04    15.446935 
15461500    2015.0481   -680.71809    303071.48    15.372826 
15462000    2005.9087   -674.21717    300100.91    15.377315 
15462500    2090.5381   -694.33212    296300.72    15.481808 
15463000    1971.1646   -657.64532    308222.73    15.106093 
15463500    2034.3639   -592.03424    297182.27    14.651872 
15464000    2120.1962   -553.68292    312562.37    14.549176 
15464500    2050.2813   -557.55513    286967.18    14.594359 
15465000     1814.279   -563.91593    282588.73    14.620203 
15465500    2077.2861    -592.1348    311192.92    14.615012 
15466000    1868.7461   -651.19206    302027.99    15.004408 
15466500    2008.4575   -638.63395    301862.07    15.014888 
15467000    2082.2282   -688.88518    301705.08    15.415364 
15467500    2013.0184   -717.09376    304941.37    15.726763 
15468000     1913.208   -701.56125    300759.63    15.781048 
15468500    2154.5492   -652.62483    305620.22    15.230102 
15469000    1958.8758   -699.72171    295336.26    15.664035 
15469500    1992.9716   -686.45809    302489.59        15.51 
15470000     1986.139   -722.89332    299625.39    15.647596 
15470500    1889.1795   -657.45364    299287.54    15.231178 
15471000    1929.3461   -677.94658    293210.46    15.381121 
15471500    2020.7408   -663.65467    296566.81    15.139716 
15472000    2094.3293   -643.90797    297889.71    15.013237 
15472500     1993.048   -657.99292    305513.63    15.068009 
15473000    1869.6425   -623.09523    302882.57    15.049897 
15473500    1931.3724   -763.87776    294080.72    15.820237 
15474000    1939.0058   -760.43202    298221.42    15.807479 
15474500    1931.2208   -728.54615    303774.58    15.374891 
15475000    1901.6274   -744.82786    300197.69     15.72772 
15475500    2251.9868   -764.66207    299869.56    15.772059 
15476000      2059.36   -716.30401    299079.31    15.372178 
15476500    2136.6639   -758.60648    303683.64    15.664428 
15477000    2008.2209   -744.90236    297838.04    15.503738 
15477500    1963.3453   -767.80045    304377.77    15.643025 
15478000    2023.3452   -768.26081    297595.83    15.701754 
15478500    2029.0341   -756.15226    304204.78    15.768068 
15479000    1799.1326   -766.45192    295009.07    15.730073 
15479500    2134.6238   -755.95347    302197.21     15.73824 
15480000    2006.7063    -754.7785    303739.95    15.648264 
15480500    1940.7765   -743.56152    305932.61    15.714423 
15481000    1855.6723   -675.79621    298156.58    15.266203 
15481500    2030.8725   -624.07709    306454.18     14.93715 
15482000    2100.9273   -657.12184    303896.08    15.198478 
15482500    2027.2167   -677.12842     302272.9     15.37515 
15483000    1921.4284   -693.60641    302716.36    15.453193 
15483500    2025.7364   -654.59185    304300.65    15.132281 
15484000    1863.3447   -644.50635    292603.76    15.023917 
15484500    1995.0868   -646.14067    295472.76    14.994587 
15485000    2276.6232   -672.26161    299945.86    15.234607 
15485500    1848.3558   -705.50579    302661.02    15.502395 
15486000    2085.3502    -667.4111    299003.43    15.267001 
15486500     1896.624   -704.81966    302600.32    15.638432 
15487000    1956.4564   -729.99872    297770.16    15.836335 
15487500     2153.624   -751.22059    302165.59    15.814585 
15488000    1888.3065   -715.53031    305066.37    15.437926 
15488500    1954.5748   -767.63334    292960.48    15.835123 
15489000    1995.6997   -713.34932    306991.32    15.223015 
15489500    2032.4367   -756.69287    302823.92    15.604412 
15490000    1977.1646   -735.67395    302627.87     15.36885 
15490500    1960.1724   -649.40129     301393.8    14.885032 
15491000    1814.5945   -604.84807    293055.86    14.721402 
15491500    1914.4859    -736.4779    304171.58    15.586463 
15492000    2114.3373   -753.97477    299368.41    15.657804 
15492500    1981.7355   -768.35049    305097.37     15.64022 
15493000    1813.9852   -770.19315    298303.55    15.797253 
15493500    2000.3822   -707.57762    298528.33    15.213115 
15494000    1845.8998   -597.46667    303940.92    14.556897 
15494500     2104.361   -614.36135    306475.71    14.647599 
15495000    2053.3448   -640.33436    307922.46    14.717333 
15495500    1945.1494   -725.08599    300327.75    15.236392 
15496000    1953.4836   -768.57757    302805.41    15.819637 
15496500    2104.9845   -731.64241    301798.49    15.318229 
15497000     2001.096   -730.52894    301769.45    15.430952 
15497500    2005.7119   -735.12925    298886.17    15.605641 
15498000     1864.601   -696.60607    294279.13    15.459992 
15498500    1922.4004   -672.06879    294450.93    15.176015 
15499000    2012.2409   -637.62564    299908.77    14.893968 
15499500    1911.4998   -612.06961    299936.46    14.865459 
15500000    2003.5037    -710.9185    300224.32    15.337617 
15500500    1999.2494   -748.82466    302147.76    15.823016 
15501000    1949.5174    -754.9772    299834.05    15.829292 
15501500    2073.9958   -713.36757    298662.99     15.69201 
15502000     2006.437    -722.6746    296750.25    15.819685 
15502500    1968.2985   -626.04948    306854.26    14.971141 
15503000    2146.6587   -669.28225    300853.55    15.127261 
15503500    1754.8527   -740.62374     299828.3    15.789508 
15504000    1885.4801   -755.80529    300672.03     15.84188 
15504500    2262.4115   -762.64355     304853.6    15.799704 
15505000       1944.5   -751.24515    297537.01    15.826718 
15505500    2042.5865   -766.92339    295972.26    15.641308 
15506000    2108.0567   -773.07241    295534.06    15.736133 
15506500    2030.4397   -750.19147    303497.65    15.437792 
15507000    1940.9245    -723.5965    301509.78     15.33351 
15507500    2152.8345   -720.82164    303463.53    15.245662 
15508000    2166.6099   -756.67847    302222.72    15.579045 
15508500    2066.6194   -752.38492    300976.57    15.523837 
15509000    1894.3913   -694.45831    300622.88    15.072336 
15509500     1988.115   -684.52177     296446.4    14.956363 
15510000    2019.9751   -700.42176     292544.1    15.011403 
15510500     1945.879   -736.70849    300652.88    15.278019 
15511000    2069.9945   -721.71056    306708.64    15.188445 
15511500    1965.4316   -665.45506    305015.86    14.834001 
15512000    1921.0584   -651.21005    299077.26    14.776829 
15512500     2134.525   -720.09159    304448.96    15.209128 
15513000    1993.7951   -753.49187    303230.01    15.921862 
15513500    2116.4479   -759.52876    303803.51    15.753011 
15514000    2068.9126   -748.37093    300596.99    15.859851 
15514500    2236.1036   -707.03765    301215.91    15.618394 
15515000    2037.7511   -711.14958    298697.21    15.722306 
15515500    2067.4386   -712.08491     303793.4    15.742889 
15516000    2095.4086    -679.4763    302843.64    15.397755 
15516500    1791.0424   -684.16336    302460.75    15.368167 
15517000    1862.5433   -702.70998    301592.88    15.536393 
15517500     1958.863   -673.89254    298066.55    15.279931 
15518000    2025.7619   -705.32556    295636.67    15.492227 
15518500    1870.8838   -701.57968    297428.53     15.46646 
15519000    2101.0413   -690.95027    302395.51    15.304846 
15519500    2245.7793   -690.21052    303371.56    15.337887 
15520000    1824.0916   -651.95777    298691.72    15.147737 
15520500    2046.5084   -645.96022    300178.61    15.101884 
15521000    1930.5972   -716.31548    296426.48    15.599199 
15521500    2038.5358   -754.99005    307337.22    15.724939 
15522000    2118.0718   -679.51586    306182.85    15.181112 
15522500    2020.5047   -713.92219    292910.71    15.531465 
15523000    2121.5042   -770.18457    301687.18    15.833211 
15523500    1983.4462   -784.56147    276714.25    15.890055 
15524000    1991.0464   -778.20047    288005.55    15.840519 
15524500    2165.0522   -786.72307    298277.05    15.816158 
15525000    2001.4872    -729.8434    305948.96    15.481199 
15525500    1953.6069   -734.16801    302466.62    15.632455 
15526000    2011.4893   -757.67632    292714.68    15.898927 
15526500    1914.5635   -746.88948    301711.75    15.792354 
15527000    1889.1872    -760.6474    297596.74    15.835095 
15527500    1986.8293   -741.76046     307505.8    15.424189 
15528000    1908.1081   -745.71778    289476.38     15.34283 
15528500    1878.8671   -752.66117    299225.02    15.417303 
15529000    1988.4633   -726.98277    286483.53    15.227212 
15529500    2018.2844   -744.10017    305483.55    15.329376 
15530000    2012.8652   -753.89773    289392.37    15.445037 
15530500    2040.5648   -746.43571    304368.65    15.377379 
15531000    1929.3909   -751.11491    282752.55    15.366817 
15531500    1996.3459   -745.04366    300574.68    15.343022 
15532000    2098.8215   -725.42725     297868.2    15.122134 
15532500    2080.3087   -697.12173    297565.48    15.013218 
15533000    2029.7653   -688.35437    302213.65    14.980122 
15533500    2208.3024   -682.26163    306420.52    14.921575 
15534000    1959.2225   -668.66324    307358.41    14.799928 
15534500    1934.3005   -693.74011    302353.38     14.95928 
15535000    1869.7119   -749.89677    294090.54    15.404381 
15535500    2040.2136   -681.88269    298966.18    14.909236 
15536000     1905.326   -662.67411    296152.45    14.885939 
15536500     2022.705   -687.59583    289655.13    15.025867 
15537000    2042.5364   -644.66684    301728.83    14.721803 
15537500    2015.9347   -693.66701    302634.74    14.851652 
15538000    1968.4322   -694.68461    286931.47    14.927186 
15538500    1978.4762     -670.446    285471.19    14.836293 
15539000    1925.8347   -716.24373    288851.06    15.068107 
15539500    1940.5605   -740.37275    302719.66     15.24247 
15540000    1923.4263   -682.76314    308411.65    14.882249 
15540500    2153.5622   -733.28253    304260.74    15.252519 
15541000    1984.9458   -733.79093    307316.04    15.251231 
15541500    1858.7602    -697.2984    287560.07     14.89158 
15542000    1823.7827    -689.3062    287441.61    14.929672 
15542500    1894.9647   -696.01192    297661.74    14.891987 
15543000    2106.3998   -682.73091    293524.96     14.94384 
15543500     1962.149   -644.21184     298688.3    14.665622 
15544000    1925.9613   -627.06673    304008.56    14.599273 
15544500    2129.9198   -609.74939    286612.83    14.533674 
15545000     1966.751    -608.8696    289288.36    14.521561 
15545500    1976.8725    -703.5586    297047.43    14.951395 
15546000    2027.4242   -674.49378    302372.03    14.748028 
15546500    2190.0644   -688.52647     303232.6    14.782821 
15547000    2021.6069   -657.64319    314485.57    14.715904 
15547500    2129.8558   -678.86172    290243.43    14.798756 
15548000    2063.7821   -669.56836     305035.2     14.74614 
15548500    1972.8075   -697.26023    293110.61    14.866639 
15549000     2037.791   -696.58354    300691.86    14.875014 
15549500    2015.5246   -685.31986    297725.19    14.823596 
15550000    1982.6576   -713.97494    288510.54    15.028386 
15550500    1905.1839    -675.5809    291283.14    14.801476 
15551000     1906.053   -712.17842    304381.48    14.982095 
15551500    1881.3162   -676.94715    306917.67    14.785991 
15552000    1842.6966     -674.004    289722.23    14.770449 
15552500    2037.7423    -688.3611    288246.13    14.881358 
15553000    1926.6405   -681.66317    310504.35    14.763827 
15553500    2045.5892   -682.11598     301346.6    14.787882 
15554000    2098.8122   -681.16273    310468.05    14.774891 
15554500    1918.0218    -675.6971     298915.8    14.727064 
15555000    2128.7769   -659.90151    304296.09    14.724533 
15555500    1875.1318   -659.56554    306774.14    14.700482 
15556000    1948.7728   -684.36417     306177.2    14.791691 
15556500    1960.3676   -701.00368    300054.85    14.880569 
15557000    2010.7008   -653.78593    295754.88    14.651244 
15557500     1889.798   -644.05796    302101.79    14.609011 
15558000     2216.823   -680.37628    313221.75    14.789783 
15558500    2092.5526   -675.95985    310141.92    14.832086 
15559000     1949.227   -696.22204    292680.81    14.894667 
15559500    2096.4887   -710.74112    296966.33    14.968421 
15560000    1955.4673   -730.13022    288191.99     15.14828 
15560500    2046.7257   -754.36396    296807.41    15.361269 
15561000    2018.7234   -692.85916     301874.3    14.910214 
15561500    2002.0395   -684.95375    306882.58    14.858369 
15562000    1941.5115   -684.49723    299217.75    14.924903 
15562500    2013.2254   -685.39116    294699.23    14.961444 
15563000    1994.4547   -680.39591    300181.13    14.852312 
15563500    1867.3462   -687.51665    300503.57    14.893421 
15564000    1940.9607   -676.26237    307441.15    14.843153 
15564500     1969.781   -723.18577    295008.02    15.113846 
15565000    1993.0575   -704.30626    294858.43    14.927055 
15565500    2043.5997   -692.96664    301944.71    14.855717 
15566000    2046.5648   -696.67793    297249.55    14.887672 
15566500    1985.2157   -679.27159    309993.76    14.776834 
15567000    1994.0574   -698.38433    299018.91    14.949718 
15567500    1852.0694   -707.41491    291449.69    14.905353 
15568000    1976.3153   -741.40489    293645.26    15.231728 
15568500    1952.2014   -705.91059    297387.76    14.995919 
15569000    1971.0256   -682.33822    307848.27    14.799489 
15569500    2023.3485   -676.10996    294771.33    14.896762 
15570000    1844.1514   -663.36012    300963.08    14.811371 
15570500    2065.4789   -679.36823    303704.53    14.861883 
15571000    1846.8495   -683.04437    302222.98    14.877319 
15571500    1921.7587   -721.14094    294137.47    15.099467 
15572000    1850.2619   -696.27607    303108.55    14.924574 
15572500    2069.3865   -682.51399    300477.97    14.926871 
15573000    2149.7717   -697.76148     298726.1    14.962269 
15573500    2035.3262   -658.71341    293989.14    14.689416 
15574000    2116.7226   -720.82019    305866.45    15.121529 
15574500    2082.3297   -731.17868    295424.95    15.119532 
15575000     2119.912   -704.85402    295496.98    14.946939 
15575500     1970.084   -693.63625    297462.63    14.835619 
15576000    2079.8611   -705.44063    303626.91     14.93679 
15576500    2080.2094   -701.90047    291668.61    14.945488 
15577000    2045.7586    -704.9711    293531.94    14.993364 
15577500    2051.8211   -691.19587    316133.61    14.804308 
15578000    2021.6657   -747.59172    284111.63    15.290284 
15578500    2072.5881   -663.69676    297460.07    14.747328 
15579000    1927.6379   -678.17172     304915.2    14.859782 
15579500    1933.5183   -641.65293    298409.48    14.744979 
15580000     1981.978   -612.89105    299996.66    14.549163 
15580500    1953.0294    -601.8062    297733.13    14.547345 
15581000    2084.7968   -589.94182    336075.43    14.499549 
15581500     1958.867    -590.6866    317972.69    14.536576 
15582000    1986.4017   -594.11552    313654.28    14.527008 
15582500    2142.8081   -614.89074    302016.88    14.561731 
15583000      1966.69   -600.87022    327580.41     14.48199 
15583500    2089.6151   -625.71594    296584.85    14.521096 
15584000    2055.7099   -703.10878    300310.27     14.92771 
15584500    2110.5693   -686.79706    311024.31    14.802356 
15585000     2117.437   -697.21786    295926.09    14.903422 
15585500    1866.6416   -681.51344    304102.42    14.815052 
15586000    2025.3531   -668.45197    308067.54    14.732848 
15586500    2002.1373   -714.68947    304687.36      15.0014 
15587000    2058.7666   -706.43007     287886.5    14.934976 
15587500    2019.0053   -700.15946    301787.74    14.940863 
15588000     1994.234    -706.6706    295048.87    14.982987 
15588500    2073.9024   -721.22915       275128    15.108681 
15589000    1882.5635   -674.81062    299532.49    14.842625 
15589500     2153.517   -688.82762     292361.8    14.836923 
15590000    2083.2224   -700.47631    301887.89    14.852549 
15590500    1738.2953   -693.93149    309128.18    14.874302 
15591000    1723.1199   -701.41883    289030.87    14.899085 
15591500    1985.1865   -668.85331    300900.19    14.726161 
15592000    1886.8793   -651.59818    314256.69    14.641721 
15592500    2061.7452   -620.56885    296752.68    14.528599 
15593000    2016.9366   -669.06271    304976.46    14.768652 
15593500    2063.0221   -705.69069    295834.33    14.925268 
15594000    1897.5565   -694.85211    295868.35    14.858398 
15594500    1970.4751   -680.30117    301730.21    14.797578 
15595000     2017.018   -702.72527    297852.92    14.910065 
15595500    1848.7298   -682.58154    288196.81    14.804957 
15596000    2068.4734   -692.26875    302273.24    14.855585 
15596500    2110.5246   -696.38133    288920.01    14.953728 
15597000    1934.0195   -704.09174     302254.4    14.928071 
15597500    2095.4649   -743.82538    306658.92    15.372318 
15598000    1967.8292   -747.22972     302677.6    15.313881 
15598500     1868.985   -735.58812    304062.49    15.195978 
15599000    2085.8888   -748.17622    291066.64    15.319596 
15599500    1838.4842   -726.74833    290145.76    15.123627 
15600000    2015.2944   -706.84721    299969.15    14.961735 
15600500    2046.1549   -680.04163    303607.66    14.814506 
15601000    1943.6746   -676.00351    314401.45    14.744785 
15601500    1841.3619   -665.00464    301852.31    14.763807 
15602000    1848.8533   -685.58388    289451.17    14.814992 
15602500    2015.3095   -715.70101     293235.6     15.02342 
15603000    1957.8461   -725.82005    302990.78    15.097621 
15603500     1888.937   -693.94095    298517.83    14.908282 
15604000    1935.4688   -674.20659    297872.42    14.759387 
15604500    1848.8417    -709.6955    298042.27    14.959749 
15605000    1886.1185    -710.2566    299072.24    14.934774 
15605500    1849.6922   -687.03788    303911.78    14.821741 
15606000    1940.1999   -659.48204    300860.55    14.741091 
15606500    1939.5846   -665.96996    297636.22    14.766656 
15607000    2171.4761   -713.36615    287198.75     14.92717 
15607500    2095.4795   -712.90996    301993.95    14.981499 
15608000    2073.2931   -687.42397    302511.21    14.795023 
15608500    1976.8977   -690.02564    289201.98    14.829863 
15609000    1972.0429   -673.24918    308070.74    14.782655 
15609500    1893.5441    -683.0757    299396.19    14.831444 
15610000    2023.4665   -712.15812    285550.88    15.005404 
15610500    1929.6826   -706.53721    293356.02    14.925891 
15611000    1980.3387   -714.66208    295436.68    14.974428 
15611500    2100.5596   -714.63444    298811.55     14.97099 
15612000    1835.0692    -692.4344    301408.33    14.878599 
15612500    1783.1638   -691.96291    295786.82    14.883885 
15613000    2017.5499   -688.79895    294079.54     14.84939 
15613500    1877.0325   -673.75558    287036.83    14.817959 
15614000    2018.7786   -692.35088    295406.42     14.85304 
15614500    2055.8132   -689.74034     274197.5    14.862231 
15615000    2025.6915   -667.11911    291101.78    14.716898 
15615500    1815.0642   -669.11781    308886.22    14.709704 
15616000    2167.0255   -670.28214    303976.05    14.726848 
15616500    2156.6791    -688.9145    305698.46    14.794824 
15617000    2095.3524   -672.44092    304315.33    14.744574 
15617500    2010.2853   -684.08423    306641.83    14.781113 
15618000    1862.7194   -685.05927     298422.9    14.816485 
15618500     2072.143   -650.08852    319290.04    14.638687 
[...]
29848000    2021.7676   -746.86717    296526.08    15.187609 
29848500    2039.9979   -744.54512    299804.91    15.144877 
29849000    2102.2048   -733.82785    308562.07    15.063845 
29849500    1985.9211   -753.03315    289340.81    15.225576 
29850000    2177.4837   -740.04808     303881.8    15.111283 
29850500    1954.0828   -734.31175     307171.5    15.079264 
29851000    2153.8995   -746.01516    294064.18    15.197917 
29851500    2045.3352   -739.59578    308174.24    15.087121 
29852000    2032.0039   -746.11042    295834.98     15.18649 
29852500    2010.5006   -741.63507    302006.95     15.14449 
29853000     2039.174   -750.71618       289724    15.202508 
29853500    2045.1016   -735.72574    305174.55    15.074926 
29854000    1963.8067   -721.45276    301784.44     15.00591 
29854500    2061.5659   -749.94657    294277.29    15.186573 
29855000    2022.4132   -736.87303    304100.94    15.079017 
29855500    1940.0026   -746.91521    295929.75     15.15198 
29856000    2125.3948     -747.462    293800.93    15.147965 
29856500    1969.9135   -744.58943    300781.66    15.146029 
29857000    2230.3584   -724.26916     307270.1    15.013524 
29857500      2043.49   -738.38637    302969.23    15.121124 
29858000    1984.4947   -752.82868    290357.26    15.206139 
29858500    1938.8843   -740.46253    299151.01    15.100204 
29859000    2029.0084   -751.39711    294136.84    15.184865 
29859500    1745.5858   -721.40075    307061.49     14.97284 
29860000    2029.0146   -742.45342    300352.78    15.157453 
29860500    2106.2724   -743.89534     303523.9    15.131127 
29861000     1957.169   -746.65169    297050.83    15.190205 
29861500    2290.6713   -735.23583    301784.75    15.108931 
29862000    2034.9478   -717.00468    310353.24    14.932494 
29862500    2057.3136   -747.96865    296922.59    15.173382 
29863000    1935.6894   -743.81244    299499.92    15.157879 
29863500    1998.7143   -736.86381    305979.78    15.100423 
29864000    1897.3132   -748.90566    292386.17    15.194667 
29864500    2069.0153   -702.63682    317105.73    14.870588 
29865000     1875.806   -746.65134    295150.75    15.134466 
29865500    2146.0754   -739.93255     303753.2    15.136298 
29866000    2062.0613   -745.64381    299124.76    15.135859 
29866500    2050.3524   -746.89233     300438.8    15.143397 
29867000    1988.0722   -739.34996    300321.52    15.114868 
29867500    2099.6244   -751.25762    296399.07    15.192002 
29868000    2004.4566   -724.51421    311735.11     14.98858 
29868500     2016.218   -732.78544    305167.93     15.08463 
29869000    1804.6896   -741.61245     294985.3    15.157812 
29869500    1965.0742   -742.62208    300114.97      15.1524 
29870000     1787.119   -742.37373    300107.66    15.136091 
29870500    2105.2583   -741.40048    306264.94    15.150588 
29871000    1944.0473   -749.72296    294490.48    15.180791 
29871500    2159.0877   -736.84559    306414.96    15.082792 
29872000    2120.0616   -743.14043    304874.22    15.146611 
29872500    1837.0505   -753.68307    285822.41    15.215437 
29873000    1930.5268   -743.82831    299280.21    15.166178 
29873500    1983.7606   -732.35451    303156.48    15.081605 
29874000    1927.9112   -747.36653    293988.97    15.188462 
29874500    1963.9069   -740.51471    302279.35    15.116726 
29875000    2001.8279     -746.412    295364.47    15.164041 
29875500    1975.6669   -750.41258    292389.82    15.193496 
29876000    2067.6922   -740.53183    303072.37    15.114179 
29876500    1948.9288   -749.85904    290566.39    15.225977 
29877000     1986.266   -725.22292    307831.74    15.026849 
29877500    2115.4826    -735.5904    309694.26     15.08038 
29878000    1893.9565   -751.29924    290781.64    15.200312 
29878500     2265.164   -744.48396    307255.08    15.136261 
29879000    1962.2803   -745.36107     290825.8    15.197723 
29879500     1945.645   -739.91904    304824.23    15.085217 
29880000    1971.9839   -746.43362    299562.07    15.141728 
29880500    2186.8116   -735.07884    304575.55    15.101992 
29881000    2017.9008   -737.23129    303194.99    15.134745 
29881500    1883.5458   -747.64835    297982.03    15.171315 
29882000    1916.0373   -734.29562    304252.04      15.0769 
29882500    2126.8538   -754.89154    289299.05    15.256315 
29883000    1894.8072   -744.15342    302427.86    15.148183 
29883500    1960.0375    -739.2875    296472.65    15.115614 
29884000     2088.564   -751.36671    295204.44    15.184543 
29884500    1871.0116   -745.69359    295605.77     15.17353 
29885000    2046.1858   -729.37473    309201.01    15.011429 
29885500    2042.8851   -747.17365    291488.95    15.232328 
29886000    2005.4083   -739.79594    300961.91    15.118865 
29886500    1878.4143   -740.05529    301186.18    15.129329 
29887000     1925.869   -746.63888    294914.13      15.1783 
29887500     1989.267   -743.16247    296504.84    15.170032 
29888000    2083.3304   -737.29852    304793.07    15.154495 
29888500    2102.3673   -741.34681     304877.4    15.121734 
29889000    1870.5541   -739.91502    298588.88    15.160491 
29889500    2075.6553   -741.51303    305316.66    15.106902 
29890000    1836.2943   -743.87435    298857.38    15.146201 
29890500    1943.2472   -725.01083    303077.38     15.03289 
29891000    2032.5872   -758.95961    285023.35    15.256521 
29891500    1911.0185   -733.49378    304619.43    15.060809 
29892000    2279.1031   -734.89185    308771.67    15.097431 
29892500    1838.3493    -743.8401    295214.79    15.188705 
29893000    1930.7256   -736.90931    298316.84    15.147007 
29893500    2092.1084   -736.13761    308997.73    15.100401 
29894000    1965.4844   -717.52777    307644.87     14.95716 
29894500    1936.9998   -747.69938    294340.39    15.203887 
29895000    2084.0572   -743.01931    303880.89    15.127872 
29895500    1847.4809   -724.84236    307995.55    15.001343 
29896000    1914.7448   -749.30234    293373.75    15.214135 
29896500    2028.4525    -735.1427    306493.02     15.06836 
29897000    2077.3476   -745.95087    297883.62    15.178924 
29897500    1749.9142   -742.13023     300998.5    15.129454 
29898000    1894.3978   -743.36393    299276.42    15.135654 
29898500    2174.6675   -740.56684    303509.08     15.11295 
29899000    2222.3012   -752.10331    292417.42    15.180684 
29899500    1963.0582   -736.53467       307183    15.065184 
29900000      2073.85   -747.96683    295527.96    15.174658 
29900500    2110.9899   -724.64484     309120.6    15.014146 
29901000     2088.278   -748.05505    297009.96    15.206631 
29901500     1847.575   -746.63744    295705.99    15.175476 
29902000    2072.9205   -741.37295    307820.51    15.128118 
29902500    2014.8598   -741.42482    298682.95    15.171268 
29903000    2088.4344    -737.6194    307586.97    15.056118 
29903500    2066.1912   -751.62481    293991.36    15.190971 
29904000     2003.023   -722.99522    304651.27    15.021125 
29904500    2029.1668   -730.95829    309663.89    15.019969 
29905000    2010.5822   -748.06935    295017.96    15.200899 
29905500    1869.1183   -740.63502     300063.7    15.110299 
29906000    1985.5308   -744.61557    298534.97    15.145272 
29906500    1948.7274   -738.10243    302258.87    15.130649 
29907000    2068.7508    -750.3288    291387.64    15.201062 
29907500    2006.8236   -733.11783    305378.33    15.064116 
29908000     1982.675    -748.0549    295338.47     15.17776 
29908500    1930.8548   -745.60353    296205.99    15.173488 
29909000    2128.2563   -731.35799    310893.71    15.020701 
29909500    1993.9937   -747.74317    297367.94    15.165567 
29910000    2067.8722   -743.48617    298310.64    15.148113 
29910500    2069.4497   -737.13623    300527.41    15.120575 
29911000    1897.6072   -757.53154    287393.69    15.260877 
29911500    1893.8455   -730.89575    302091.15    15.082729 
29912000    1955.0461   -741.89037    301086.66    15.135054 
29912500     2102.373   -751.09595    297006.02    15.170359 
29913000    1916.3563   -737.87695     303952.4    15.109344 
29913500    1964.8069   -747.88321    297509.53    15.182129 
29914000    1899.2788    -740.8957    306113.67    15.102582 
29914500    2188.3347   -741.04563    298681.38    15.199302 
29915000    2128.6067   -743.04049    300495.82    15.159117 
29915500    2030.2551   -724.71981    310598.75    14.971858 
29916000    2048.8584   -749.45148    294403.29    15.162914 
29916500    1934.9132   -738.46046    308120.08     15.10867 
29917000    2043.1954   -724.24773    306904.83    15.023135 
29917500       2037.5   -740.51158    301337.56    15.169432 
29918000    2042.9732   -753.54438     291914.3    15.203194 
29918500    2085.1415   -737.83412    306971.02    15.045452 
29919000    1906.7114   -738.70223    304680.36    15.106283 
29919500    2053.2053   -748.06514    292808.58    15.195984 
29920000    1834.3346   -729.18119    302233.65    15.038727 
29920500    2031.7638   -749.51493    291641.15    15.178231 
29921000    1856.5823   -745.72601    300579.93    15.174131 
29921500    2071.6785   -729.90621    310796.91    15.090844 
29922000    2111.6486   -731.93595    305119.14    15.058714 
29922500     1955.193   -754.68647    288616.73      15.2564 
29923000    1972.9719   -737.33033    303209.85     15.13259 
29923500    2078.8217   -749.08029    292842.07    15.211868 
29924000     2088.849   -744.17841    297125.58    15.154707 
29924500    2042.3005   -746.57034    297487.26    15.166098 
29925000    1943.9397   -744.02898    297715.98    15.154209 
29925500    2167.1025   -738.21282    302535.62    15.144025 
29926000    1920.9651   -753.14563    293503.58    15.220213 
29926500    2072.9061   -734.54358    306500.39    15.052988 
29927000    1652.2294   -740.64376    300654.31    15.088734 
29927500    1928.8709   -746.51865    292921.17    15.188166 
29928000    1877.2388   -740.05778    305619.15    15.080933 
29928500    1925.9612   -748.27387    295425.43    15.162351 
29929000    1926.1303   -740.28385    301568.84     15.13991 
29929500    1995.4682   -757.11696    286228.43    15.245109 
29930000    1949.5219   -734.88356     303424.5    15.078368 
29930500     1992.905   -732.64438       302543    15.119685 
29931000    2025.9758   -749.49867    295485.53     15.18324 
29931500    1771.8674   -734.69987    303531.21    15.078409 
29932000     1956.064   -747.53028     295280.2    15.152833 
29932500    1989.3842   -747.82345    302545.78    15.109424 
29933000    1999.0505    -752.2142    287533.17    15.233732 
29933500    2032.1262   -725.53821    305997.57    15.044495 
29934000    2013.1864   -740.03802    298485.59    15.143264 
29934500    1984.4093   -759.00884    282540.74     15.31592 
29935000    2098.3652   -748.08556    297966.26     15.17458 
29935500    1948.3386   -729.44968    306555.64    15.065115 
29936000    1883.4427    -752.3429    291517.83    15.228122 
29936500    1972.3397   -734.13252    307554.28     15.07106 
29937000    1834.2189    -749.7144    294513.38    15.163602 
29937500    1955.2864   -740.91022    299179.57    15.133704 
29938000    1972.8642   -746.36519    302806.77    15.153545 
29938500    1969.2696   -744.78361    299695.22    15.159932 
29939000    2099.3051   -744.55357    299796.25    15.159896 
29939500    1842.8984   -748.41042    294504.45    15.208408 
29940000    2017.2734   -731.22906    304934.28    15.081348 
29940500    2054.8585   -735.85839    311014.84    15.060545 
29941000    1892.3001   -747.58303    289008.67    15.230335 
29941500    2122.2374   -739.39813    305597.12    15.082453 
29942000    1933.4117   -739.98898    300533.27    15.144572 
29942500    1974.7467   -750.47248    289032.94    15.207559 
29943000    2091.4151   -741.94392    300120.88    15.144961 
29943500    1966.3311    -750.2493    296959.85    15.148763 
29944000    2059.9895   -740.45466    305919.79     15.10816 
29944500    1872.9248   -752.32839    294615.88    15.189147 
29945000     2111.273   -729.12515    302445.04    15.075453 
29945500     2027.153   -751.85468    294310.29    15.231438 
29946000    1947.9795   -752.35589    287424.44    15.234895 
29946500    1973.8736   -734.78414    301524.53     15.10885 
29947000     2042.237   -747.61848    297891.32    15.197493 
29947500    2087.8073   -727.48457    308181.57    15.019866 
29948000    1991.2746   -738.84705    301472.37    15.118715 
29948500    2075.1282   -752.14197    288620.31     15.21674 
29949000    1989.6772    -735.2426    306527.23    15.062001 
29949500    1998.6978   -747.64352    290388.66    15.234175 
29950000    2041.2034   -743.72405    302649.95    15.109055 
29950500    1997.7258   -747.34021    299820.69    15.157471 
29951000    1968.0393    -746.4873    302637.45    15.147626 
29951500    1861.7766    -735.5266    304216.09     15.10343 
29952000    2112.5456   -749.41096    296835.89    15.199397 
29952500    1930.3115   -747.29663    295914.28    15.158285 
29953000    1991.1311   -736.31066    303766.17    15.068989 
29953500    1761.0251   -745.69203    293355.17    15.183728 
29954000    1815.9998   -733.88288    304246.31    15.079972 
29954500    1905.2623   -748.66201    290601.26    15.186605 
29955000    1874.8134   -726.99423    304517.48    14.992019 
29955500     2143.221   -748.18664    298439.09    15.201949 
29956000    2095.9471    -742.3523     298975.2    15.152063 
29956500    1986.2743   -742.08203    299392.92    15.132477 
29957000    2050.4805   -740.71299    306201.29    15.119795 
29957500    2170.6088   -723.60495    309340.35    14.992937 
29958000    1861.0757   -749.43208    295011.49    15.161742 
29958500    1892.1855   -736.51622    303347.59    15.113055 
29959000    1901.4566   -749.64068    297627.72    15.170284 
29959500    2102.8048   -735.83501    302368.44    15.091013 
29960000    1788.9526   -750.71785     290184.5    15.205816 
29960500    1983.3983   -731.68951    305319.05      15.0781 
29961000     2001.846   -734.59208     303532.2    15.072174 
29961500    2103.6809   -746.99893     296037.1    15.144787 
29962000    2074.5862   -740.43791    303184.64    15.073897 
29962500    2002.9275   -758.64044       284030    15.281115 
29963000    2046.5194   -755.67596    288005.09    15.282313 
29963500    1947.4171   -736.32069    307729.85    15.067159 
29964000    1978.5829   -745.88475    296479.46    15.134802 
29964500    2150.2197    -743.5339    304202.73    15.133159 
29965000    1958.3085   -749.60861    297409.54     15.19671 
29965500    1986.7904   -723.25012    311330.44    14.955209 
29966000    1774.9043   -742.13858    297270.02    15.159101 
29966500    1876.0385   -743.69288     297816.6    15.148171 
29967000    2028.3325   -742.53681    298893.25     15.12867 
29967500      2087.65   -708.22578       315711    14.863662 
29968000    2114.7912   -739.20988    297240.09    15.121798 
29968500     1936.864   -744.96927    297602.76    15.145613 
29969000    2148.9119   -734.22941    308137.06    15.081679 
29969500    2029.3618   -750.44589    295847.07    15.223641 
29970000     2074.134   -740.49108    304758.99    15.116646 
29970500    1863.1227   -750.40905     293721.6    15.146416 
29971000    2030.6195   -738.74134    306283.32    15.089357 
29971500    1961.9597    -744.6667    299456.94    15.172901 
29972000     2175.781   -746.26484    298278.15     15.16214 
29972500    1926.7205   -750.43572    293448.35    15.171648 
29973000    1833.0062   -731.07964    301218.07    15.063422 
29973500    1980.3482   -746.96361    295745.33    15.179956 
29974000    2057.6616   -739.28739    301753.45    15.140081 
29974500    2128.5239   -731.97094    308333.63    15.038998 
29975000    1903.5369   -747.97913     294395.9    15.198224 
29975500    2084.7928   -733.11368    308808.86    15.049828 
29976000    2067.3281   -744.09628    301663.64    15.137675 
29976500    1939.9254   -742.67526    298402.36     15.18635 
29977000    2057.4859   -735.20755    304244.22    15.082739 
29977500    1950.2156   -743.49525    301117.97     15.15024 
29978000    1990.8744   -743.65997    297901.66    15.172649 
29978500    1867.8316   -740.67706    299211.45     15.12222 
29979000    1962.2674   -740.04068    302441.48    15.137841 
29979500    1974.6836    -740.1985    306202.27    15.107707 
29980000    1887.4327   -739.41861    299591.63    15.123603 
29980500    1916.6721   -749.06548    296916.11    15.185386 
29981000    2116.7918   -751.85972    290629.82    15.200043 
29981500    2000.1174   -736.53238    306469.09    15.054665 
29982000    2009.5553   -744.12035    299271.02    15.162578 
29982500    2136.4247   -744.85156    295416.88    15.186454 
29983000    1862.8092   -743.59575     301620.5    15.121612 
29983500    2077.0929   -742.86252    298641.15    15.155215 
29984000    2134.3981     -747.447    299493.37     15.12535 
29984500    1926.9271     -732.813    304580.16    15.071721 
29985000    2225.0983   -757.54427    287286.03    15.265188 
29985500    2036.4908   -728.84478    303834.45    15.060301 
29986000    2064.5578   -737.94063    303277.19    15.127851 
29986500    1999.9193   -746.28917    299886.85    15.185289 
29987000    1973.9836   -739.50068    300652.55    15.132872 
29987500    1883.0002   -740.41056    305015.17    15.117102 
29988000    2018.3695   -724.22731    309800.45    15.008752 
29988500    2005.0562    -754.6723    289367.57    15.238463 
29989000    1858.1121   -750.80256    291173.94    15.237321 
29989500    1791.2657   -737.82133    298792.96    15.093071 
29990000    1882.9243   -745.62546    294780.86    15.168723 
29990500     2032.364   -730.70605    305626.64    15.069368 
29991000    1966.9638   -735.17976    304701.89    15.068628 
29991500    2167.2646   -749.45507    298728.19    15.213143 
29992000    1986.2377   -753.06798    288657.38    15.246844 
29992500    1910.5206   -729.30945    305657.29    15.037149 
29993000    1879.1028   -731.87298    303987.61    15.071372 
29993500    1849.2599   -742.39382    299102.17     15.13909 
29994000    1999.2169   -747.12225    294834.23     15.19662 
29994500    2002.9914   -727.74725    308009.26    15.022426 
29995000    1920.5832   -710.26155    311638.85     14.91888 
29995500    1880.3406    -751.0984    290955.72     15.22503 
29996000    1976.0674   -738.11377     304767.3    15.114538 
29996500    2037.1968   -743.28847    303221.47    15.121007 
29997000    2144.7581   -741.73832    303089.83     15.13743 
29997500    2006.1525   -749.27032    291539.31    15.217155 
29998000    1926.4665   -725.92598    304589.75    15.029019 
29998500     1849.861   -748.17327    295975.41    15.171548 
29999000    1990.3776   -743.35909    301427.99    15.150801 
29999500    1928.6734   -735.65075    301130.93    15.085836 
30000000    1856.9061   -747.57422    293604.99    15.194588 
Loop time of 60211.2 on 6 procs for 15000500 steps with 256 atoms

Performance: 43.050 ns/day, 0.557 hours/ns, 249.131 timesteps/s
99.4% CPU use with 6 MPI tasks x no OpenMP threads

MPI task timing breakdown:
Section |  min time  |  avg time  |  max time  |%varavg| %total
---------------------------------------------------------------
Pair    | 3766.5     | 3894.4     | 3972.6     | 119.4 |  6.47
Neigh   | 93.688     | 95.62      | 96.984     |  12.2 |  0.16
Comm    | 868.11     | 944.62     | 1068.2     | 247.9 |  1.57
Output  | 392.27     | 392.29     | 392.38     |   0.2 |  0.65
Modify  | 54820      | 54830      | 54843      |   3.1 | 91.06
Other   |            | 54.12      |            |       |  0.09

Nlocal:    42.6667 ave 45 max 40 min
Histogram: 1 0 1 0 1 0 0 0 2 1
Nghost:    1175.67 ave 1185 max 1170 min
Histogram: 1 0 2 1 1 0 0 0 0 1
Neighs:    3614.67 ave 3907 max 3239 min
Histogram: 1 0 0 1 1 1 0 0 0 2

Total # of neighbors = 21688
Ave neighs/atom = 84.7188
Neighbor list builds = 642989
Dangerous builds = 0

write_data	data.final
Total wall time: 16:43:37
