LAMMPS data file via write_data, version 1 Feb 2019, timestep = 13

256 atoms
1 atom types

0.0000000000000000e+00 1.5152401845558153e+01 xlo xhi
0.0000000000000000e+00 1.5152401845558153e+01 ylo yhi
0.0000000000000000e+00 1.5152401845558153e+01 zlo zhi

Masses

1 26.982

Atoms # atomic

8 1 4.3038310827298645e+00 2.4092205393079200e+00 2.4097696491475640e+00 0 0 0
19 1 2.4105128070782991e+00 4.3038689199448772e+00 2.4101277441423483e+00 0 0 0
24 1 4.3042813953166288e+00 6.1978523748403633e+00 2.4101941341933770e+00 0 0 0
34 1 2.4100507528067960e+00 2.4099804380506429e+00 4.3043023163042138e+00 0 0 0
40 1 4.3037215371479114e+00 2.4098292586670707e+00 6.1986957426854934e+00 0 0 0
50 1 2.4107278966883299e+00 6.1980442377517555e+00 4.3046425498026704e+00 0 0 0
51 1 2.4098161256815720e+00 4.3036694105243773e+00 6.1980935649738926e+00 0 0 0
53 1 4.3046855155261223e+00 4.3036130245480102e+00 4.3039743939040216e+00 0 0 0
56 1 4.3040526460589454e+00 6.1981120285668148e+00 6.1980742783754152e+00 0 0 0
3 1 2.4099123790688752e+00 5.1574798300933800e-01 2.4104355984456936e+00 0 0 0
49 1 5.1585403381224815e-01 4.3042542268919410e+00 4.3036307933220970e+00 0 0 0
52 1 5.1626744103119360e-01 6.1980828891912623e+00 6.1980819173010895e+00 0 0 0
20 1 5.1665392600639881e-01 6.1982623860772463e+00 2.4103520670227816e+00 0 0 0
37 1 4.3035620783372091e+00 5.1560596171511797e-01 4.3049348243429444e+00 0 0 0
35 1 2.4095002141095381e+00 5.1532324097655935e-01 6.1987112118117658e+00 0 0 0
21 1 4.3039460069272142e+00 4.3037650914037000e+00 5.1680150324602048e-01 0 0 0
4 1 5.1594934603674647e-01 2.4094418333939704e+00 2.4095503814633066e+00 0 0 0
36 1 5.1634801469712588e-01 2.4097480691395430e+00 6.1980514537755251e+00 0 0 0
1 1 5.1546572544190483e-01 5.1514349030716400e-01 5.1618973013535430e-01 0 0 0
33 1 5.1648466121613434e-01 5.1589752564004976e-01 4.3041894142106418e+00 0 0 0
2 1 2.4097791683292669e+00 2.4097205198016654e+00 5.1577648495908457e-01 0 0 0
18 1 2.4095865777123135e+00 6.1978336658686830e+00 5.1637931434268647e-01 0 0 0
17 1 5.1527816265788318e-01 4.3034553311867079e+00 5.1641549515263252e-01 0 0 0
5 1 4.3037420471773000e+00 5.1580002175689088e-01 5.1575500144096131e-01 0 0 0
43 1 9.9864890035070246e+00 5.1555480902590867e-01 6.1976028565731660e+00 0 0 0
23 1 6.1985422986718621e+00 4.3032823979817003e+00 2.4098157906145232e+00 0 0 0
54 1 6.1984198408459514e+00 6.1976440434652353e+00 4.3041386056831756e+00 0 0 0
12 1 8.0918787100078209e+00 2.4097238426584981e+00 2.4098600871411131e+00 0 0 0
27 1 9.9862659671431331e+00 4.3033589167221411e+00 2.4093758928860929e+00 0 0 0
28 1 8.0921693911788282e+00 6.1976695127508421e+00 2.4098235940964545e+00 0 0 0
38 1 6.1981036760526322e+00 2.4093655556931295e+00 4.3042839770211856e+00 0 0 0
44 1 8.0924207787030369e+00 2.4094630126299457e+00 6.1981289122122902e+00 0 0 0
55 1 6.1979806753503786e+00 4.3033219021738098e+00 6.1982119250337355e+00 0 0 0
57 1 8.0920757894345439e+00 4.3029399455106230e+00 4.3041597040934096e+00 0 0 0
58 1 9.9867720833695106e+00 6.1969929615714934e+00 4.3040077102786061e+00 0 0 0
60 1 8.0924308195500565e+00 6.1966513224696165e+00 6.1979235260414738e+00 0 0 0
39 1 6.1976669775122426e+00 5.1590483303643175e-01 6.1987264207712700e+00 0 0 0
22 1 6.1981367110248256e+00 6.1980222426691940e+00 5.1655828559469885e-01 0 0 0
25 1 8.0922258481109210e+00 4.3034689388760565e+00 5.1559511081398501e-01 0 0 0
6 1 6.1983084258190999e+00 2.4095344784422426e+00 5.1573507280375597e-01 0 0 0
26 1 9.9852905379661028e+00 6.1975352648160893e+00 5.1554343619516851e-01 0 0 0
9 1 8.0909851820281204e+00 5.1501167112676893e-01 5.1610933514686008e-01 0 0 0
41 1 8.0920789689211308e+00 5.1602194839899052e-01 4.3039308605924838e+00 0 0 0
7 1 6.1976785922769198e+00 5.1574735901390789e-01 2.4099426753391677e+00 0 0 0
11 1 9.9859104965295558e+00 5.1538716320506195e-01 2.4100076857001853e+00 0 0 0
42 1 9.9869633650596015e+00 2.4091884760384676e+00 4.3037978337491625e+00 0 0 0
59 1 9.9864989407125826e+00 4.3032819985435626e+00 6.1985277708235866e+00 0 0 0
10 1 9.9853791724670167e+00 2.4090466395430385e+00 5.1505686904963899e-01 0 0 0
14 1 1.3773619963485558e+01 2.4091775840326179e+00 5.1587581033650853e-01 0 0 0
63 1 1.3775144188581537e+01 4.3038923419856410e+00 6.1985841436897831e+00 0 0 0
48 1 1.1881008639228256e+01 2.4094913051777822e+00 6.1977235574168361e+00 0 0 0
61 1 1.1880813231998642e+01 4.3035482241022152e+00 4.3044497932569525e+00 0 0 0
16 1 1.1879637532532339e+01 2.4096976129236647e+00 2.4096113415252969e+00 0 0 0
46 1 1.3775384353645761e+01 2.4101517564504773e+00 4.3040776862695695e+00 0 0 0
31 1 1.3774191927233950e+01 4.3037195636501204e+00 2.4097952448960283e+00 0 0 0
64 1 1.1880433489899080e+01 6.1970207455413711e+00 6.1978497516637647e+00 0 0 0
32 1 1.1880071561955505e+01 6.1972269530195669e+00 2.4095665055795661e+00 0 0 0
62 1 1.3774365576422820e+01 6.1979749253200813e+00 4.3041603334884551e+00 0 0 0
47 1 1.3774679376207846e+01 5.1545064986102695e-01 6.1976833591998126e+00 0 0 0
30 1 1.3774000941984708e+01 6.1975935097374242e+00 5.1579673355751066e-01 0 0 0
29 1 1.1879290026123094e+01 4.3033788104288115e+00 5.1579025805549872e-01 0 0 0
45 1 1.1880816073294380e+01 5.1558806126918955e-01 4.3038384717505265e+00 0 0 0
15 1 1.3774415597955890e+01 5.1559650895232145e-01 2.4102213943760691e+00 0 0 0
13 1 1.1879539921547185e+01 5.1513279994214389e-01 5.1624629809181311e-01 0 0 0
72 1 4.3032179132157591e+00 2.4098741023871475e+00 9.9863897768599745e+00 0 0 0
83 1 2.4092996195951111e+00 4.3035803917730489e+00 9.9873938825377522e+00 0 0 0
88 1 4.3038341827327375e+00 6.1978762157064891e+00 9.9867322766059541e+00 0 0 0
98 1 2.4086994373875474e+00 2.4098004532460191e+00 1.1880921194508513e+01 0 0 0
104 1 4.3032591222181544e+00 2.4092676458538986e+00 1.3774467232581072e+01 0 0 0
114 1 2.4093637728134554e+00 6.1975553856763241e+00 1.1881535625562284e+01 0 0 0
115 1 2.4093488919987398e+00 4.3034944531391091e+00 1.3775258812516162e+01 0 0 0
117 1 4.3031932140538789e+00 4.3037669833579439e+00 1.1880840064490755e+01 0 0 0
120 1 4.3037485629130670e+00 6.1978502838727305e+00 1.3774884518021000e+01 0 0 0
82 1 2.4102484127031443e+00 6.1976736479822838e+00 8.0927876509113172e+00 0 0 0
67 1 2.4089790229674608e+00 5.1575325651112180e-01 9.9866012086505798e+00 0 0 0
100 1 5.1443761681222666e-01 2.4096688926865140e+00 1.3774692428206107e+01 0 0 0
97 1 5.1410379808507023e-01 5.1523056778612508e-01 1.1880642174632760e+01 0 0 0
66 1 2.4094651194907617e+00 2.4095873555235228e+00 8.0928220715657986e+00 0 0 0
101 1 4.3026040898928457e+00 5.1535998826181273e-01 1.1879962926881038e+01 0 0 0
116 1 5.1535180598325037e-01 6.1974340137938952e+00 1.3774653067288616e+01 0 0 0
85 1 4.3030846720265554e+00 4.3039023379510812e+00 8.0928050470951742e+00 0 0 0
113 1 5.1493588317341898e-01 4.3035361599087416e+00 1.1880792918005703e+01 0 0 0
68 1 5.1498482909541188e-01 2.4093042986192077e+00 9.9861682912750069e+00 0 0 0
81 1 5.1617042473949126e-01 4.3041852842241930e+00 8.0928118485892035e+00 0 0 0
84 1 5.1543031834943476e-01 6.1979577028008750e+00 9.9870578132316119e+00 0 0 0
69 1 4.3034344124750810e+00 5.1579047219354357e-01 8.0932201070165402e+00 0 0 0
65 1 5.1534073350684806e-01 5.1560785845999069e-01 8.0927283424181180e+00 0 0 0
99 1 2.4089744003226410e+00 5.1571303145496261e-01 1.3773682731081859e+01 0 0 0
70 1 6.1976002364388281e+00 2.4097331508736417e+00 8.0925732337503966e+00 0 0 0
90 1 9.9866866377929817e+00 6.1968326340529138e+00 8.0927431274345700e+00 0 0 0
75 1 9.9861229776367857e+00 5.1462596300633201e-01 9.9853850515895921e+00 0 0 0
87 1 6.1972234136837692e+00 4.3037295671228941e+00 9.9863737126305097e+00 0 0 0
76 1 8.0920853005829585e+00 2.4092313670910936e+00 9.9860307809249242e+00 0 0 0
124 1 8.0912116861764591e+00 6.1972584880732606e+00 1.3774023981922268e+01 0 0 0
92 1 8.0914626739115150e+00 6.1970976147489267e+00 9.9855486736451322e+00 0 0 0
102 1 6.1972463980725845e+00 2.4094228938510520e+00 1.1879875842560791e+01 0 0 0
106 1 9.9858731966048033e+00 2.4088289492742789e+00 1.1879409866998884e+01 0 0 0
108 1 8.0915554832066068e+00 2.4092778785312845e+00 1.3773511872484223e+01 0 0 0
118 1 6.1977590766507440e+00 6.1976744276820339e+00 1.1880538782263692e+01 0 0 0
119 1 6.1972974323475167e+00 4.3035340548456196e+00 1.3774366902700438e+01 0 0 0
121 1 8.0913290629559924e+00 4.3030897092091402e+00 1.1879928290181727e+01 0 0 0
123 1 9.9855874505780449e+00 4.3033379303377046e+00 1.3773748390921252e+01 0 0 0
74 1 9.9867456967081072e+00 2.4087168405233386e+00 8.0916572418701751e+00 0 0 0
86 1 6.1980416886430181e+00 6.1974083445695243e+00 8.0920752018634357e+00 0 0 0
73 1 8.0919646013652606e+00 5.1538349079330448e-01 8.0919941932030834e+00 0 0 0
89 1 8.0920783448181588e+00 4.3030467961230796e+00 8.0919545807255986e+00 0 0 0
105 1 8.0917828256513502e+00 5.1492064989228681e-01 1.1879534706413999e+01 0 0 0
107 1 9.9849577367555362e+00 5.1467772391577449e-01 1.3774067660513355e+01 0 0 0
71 1 6.1981252976315409e+00 5.1591617885602836e-01 9.9860112683210289e+00 0 0 0
103 1 6.1973279992589534e+00 5.1573652067596210e-01 1.3773357563806924e+01 0 0 0
94 1 1.3774695366836459e+01 6.1975005852210439e+00 8.0926115663982063e+00 0 0 0
93 1 1.1880599190955646e+01 4.3032848020085979e+00 8.0926275655600577e+00 0 0 0
91 1 9.9860099872929879e+00 4.3028758857716705e+00 9.9858121260136752e+00 0 0 0
122 1 9.9850822313644869e+00 6.1975276834694473e+00 1.1879860748464830e+01 0 0 0
125 1 1.1879298473359986e+01 4.3030644103628992e+00 1.1880151690694969e+01 0 0 0
128 1 1.1879213013284089e+01 6.1976291224915991e+00 1.3773920662864739e+01 0 0 0
127 1 1.3772814266053015e+01 4.3032821549234512e+00 1.3774165335330324e+01 0 0 0
126 1 1.3773572398166969e+01 6.1975786659392487e+00 1.1881342617578447e+01 0 0 0
95 1 1.3774314066333455e+01 4.3035659480233086e+00 9.9868932635180787e+00 0 0 0
112 1 1.1878529220463584e+01 2.4087553413246932e+00 1.3774123229946357e+01 0 0 0
96 1 1.1879850612230996e+01 6.1975563174779982e+00 9.9866112415785118e+00 0 0 0
110 1 1.3773281942867145e+01 2.4095375933765077e+00 1.1880603446207903e+01 0 0 0
80 1 1.1880331591740969e+01 2.4086070201093830e+00 9.9858470602947413e+00 0 0 0
78 1 1.3774312340444324e+01 2.4095573580856811e+00 8.0918645902076776e+00 0 0 0
109 1 1.1879124174415651e+01 5.1456516041899802e-01 1.1880255544255423e+01 0 0 0
111 1 1.3772749335094602e+01 5.1476795200437075e-01 1.3774447512059444e+01 0 0 0
77 1 1.1880495868852931e+01 5.1502972523051771e-01 8.0913603509173857e+00 0 0 0
79 1 1.3773542530547481e+01 5.1499927033263526e-01 9.9863320750227818e+00 0 0 0
161 1 5.1643534541419267e-01 8.0918909862943043e+00 4.3043134069216507e+00 0 0 0
163 1 2.4102932578592187e+00 8.0920120212048268e+00 6.1988916436994517e+00 0 0 0
165 1 4.3047167195179066e+00 8.0920653173087675e+00 4.3045317842713944e+00 0 0 0
136 1 4.3039770194339848e+00 9.9867357262810401e+00 2.4099870784192987e+00 0 0 0
147 1 2.4099038397371055e+00 1.1880539307527325e+01 2.4102292018311564e+00 0 0 0
152 1 4.3034147494320072e+00 1.3774750373434701e+01 2.4099018453433310e+00 0 0 0
162 1 2.4105958469844144e+00 9.9863368415930616e+00 4.3047936189006979e+00 0 0 0
168 1 4.3042691446644721e+00 9.9860731655670829e+00 6.1985951234495724e+00 0 0 0
178 1 2.4098991742973550e+00 1.3773965393676097e+01 4.3047232908223112e+00 0 0 0
179 1 2.4098250099229506e+00 1.1879621651612226e+01 6.1988666363436611e+00 0 0 0
181 1 4.3038910112627864e+00 1.1880804803307349e+01 4.3046847756401121e+00 0 0 0
184 1 4.3037750550955423e+00 1.3774777064856623e+01 6.1991026044997826e+00 0 0 0
164 1 5.1557189900007960e-01 9.9853169250861828e+00 6.1977863099555872e+00 0 0 0
131 1 2.4106947250037107e+00 8.0923500748967054e+00 2.4103434969969233e+00 0 0 0
130 1 2.4098453860704101e+00 9.9863927497851446e+00 5.1642409276891121e-01 0 0 0
146 1 2.4094939852861890e+00 1.3774225559703927e+01 5.1595371514327604e-01 0 0 0
177 1 5.1590329285667358e-01 1.1879722372288789e+01 4.3047113608726066e+00 0 0 0
180 1 5.1561966980234064e-01 1.3773630077773316e+01 6.1987717162277374e+00 0 0 0
149 1 4.3031942074179783e+00 1.1880481779892532e+01 5.1583818818729799e-01 0 0 0
129 1 5.1590746134206233e-01 8.0919226412957546e+00 5.1620790957644813e-01 0 0 0
132 1 5.1661868274379863e-01 9.9860000155680897e+00 2.4101221065376932e+00 0 0 0
148 1 5.1577686129214217e-01 1.3774043536480280e+01 2.4101070770096786e+00 0 0 0
145 1 5.1585503224333318e-01 1.1880009099284454e+01 5.1571882632543542e-01 0 0 0
133 1 4.3039721111545575e+00 8.0923361489446020e+00 5.1656468227330266e-01 0 0 0
137 1 8.0908933843341302e+00 8.0918685764206906e+00 5.1596453195670777e-01 0 0 0
167 1 6.1988841786634836e+00 8.0915160032983824e+00 6.1980919483974883e+00 0 0 0
169 1 8.0920654556195633e+00 8.0915576765726112e+00 4.3040294701530080e+00 0 0 0
187 1 9.9864098070163152e+00 1.1879559677524417e+01 6.1972732142411635e+00 0 0 0
186 1 9.9866343658957391e+00 1.3773983939737176e+01 4.3035436178153139e+00 0 0 0
140 1 8.0917900695368630e+00 9.9861722184927135e+00 2.4098398474591960e+00 0 0 0
151 1 6.1975407796314315e+00 1.1880618544639807e+01 2.4107137576515374e+00 0 0 0
188 1 8.0923160391296189e+00 1.3773927383451147e+01 6.1977982626419692e+00 0 0 0
155 1 9.9858560999898991e+00 1.1879670929729127e+01 2.4097351408225332e+00 0 0 0
156 1 8.0913716839241339e+00 1.3774144778412795e+01 2.4096289346016544e+00 0 0 0
166 1 6.1982224897978977e+00 9.9866829555186829e+00 4.3041234224364961e+00 0 0 0
172 1 8.0920189655510146e+00 9.9857346597147885e+00 6.1972404957139524e+00 0 0 0
182 1 6.1976094198593499e+00 1.3774468035345240e+01 4.3044699415662482e+00 0 0 0
183 1 6.1983582115112137e+00 1.1880388763817621e+01 6.1984436731301704e+00 0 0 0
185 1 8.0922011273804024e+00 1.1880062617097433e+01 4.3037286325417741e+00 0 0 0
139 1 9.9856875057793140e+00 8.0912686248242309e+00 2.4101454453902291e+00 0 0 0
135 1 6.1981122069696237e+00 8.0920833380128379e+00 2.4106272664514061e+00 0 0 0
171 1 9.9864108418085618e+00 8.0906059780292541e+00 6.1974955697881340e+00 0 0 0
150 1 6.1974279371055365e+00 1.3774091549113429e+01 5.1569995502529953e-01 0 0 0
138 1 9.9855548626107868e+00 9.9855644733282567e+00 5.1606125379213996e-01 0 0 0
153 1 8.0910267672906144e+00 1.1879658088719335e+01 5.1575877485878330e-01 0 0 0
154 1 9.9855585889340901e+00 1.3773420856828148e+01 5.1614160096973083e-01 0 0 0
134 1 6.1970698736115288e+00 9.9861928963392774e+00 5.1623019928916347e-01 0 0 0
173 1 1.1880501004606526e+01 8.0908758334147013e+00 4.3038050284237315e+00 0 0 0
175 1 1.3774471855412537e+01 8.0916131611989162e+00 6.1982913955051959e+00 0 0 0
141 1 1.1879593539133392e+01 8.0916840001545953e+00 5.1569804618774318e-01 0 0 0
170 1 9.9861024064895432e+00 9.9846654352996271e+00 4.3038148910797558e+00 0 0 0
159 1 1.3774522907711596e+01 1.1879631161466397e+01 2.4102055756230496e+00 0 0 0
192 1 1.1880690020227638e+01 1.3773587886728459e+01 6.1973437869758179e+00 0 0 0
189 1 1.1880193281460530e+01 1.1879151366085752e+01 4.3039679851746424e+00 0 0 0
190 1 1.3774726829834304e+01 1.3773430512272800e+01 4.3041445860814234e+00 0 0 0
160 1 1.1880251243987770e+01 1.3773568405548303e+01 2.4103383179905631e+00 0 0 0
191 1 1.3774344886546038e+01 1.1878903894723017e+01 6.1980256604391570e+00 0 0 0
144 1 1.1880216395672939e+01 9.9856232779366181e+00 2.4100280265386971e+00 0 0 0
176 1 1.1880038846880124e+01 9.9846617415601031e+00 6.1973059631853884e+00 0 0 0
174 1 1.3774550646342899e+01 9.9854339677945365e+00 4.3037742908201491e+00 0 0 0
143 1 1.3774721733338829e+01 8.0916501445528226e+00 2.4095458219139254e+00 0 0 0
157 1 1.1879725705154549e+01 1.1879489803905525e+01 5.1635374934534040e-01 0 0 0
142 1 1.3773907547342104e+01 9.9857083351604370e+00 5.1642594748974091e-01 0 0 0
158 1 1.3774041982276396e+01 1.3773975168506553e+01 5.1617676399948442e-01 0 0 0
210 1 2.4093914883640908e+00 1.3773734013899182e+01 8.0930395889486100e+00 0 0 0
194 1 2.4097808012327269e+00 9.9855191084453665e+00 8.0927933053049017e+00 0 0 0
193 1 5.1571569329280686e-01 8.0915402475449252e+00 8.0930839571255326e+00 0 0 0
213 1 4.3037904986395032e+00 1.1879553151428956e+01 8.0923476721659195e+00 0 0 0
200 1 4.3038729889312117e+00 9.9856098030289218e+00 9.9856580827388974e+00 0 0 0
211 1 2.4092985227501749e+00 1.1879259258868856e+01 9.9865828282043303e+00 0 0 0
216 1 4.3032016267685798e+00 1.3773748760562324e+01 9.9860283451591787e+00 0 0 0
226 1 2.4096492868925790e+00 9.9855451626174929e+00 1.1880346570920064e+01 0 0 0
232 1 4.3034549669616151e+00 9.9858819267015768e+00 1.3774206909752369e+01 0 0 0
242 1 2.4090135770903225e+00 1.3774006305818643e+01 1.1879619052341729e+01 0 0 0
243 1 2.4090364152076544e+00 1.1879898961582766e+01 1.3774047669803437e+01 0 0 0
245 1 4.3033210067832899e+00 1.1879850713788018e+01 1.1879751337566880e+01 0 0 0
248 1 4.3026770374267089e+00 1.3774072774125022e+01 1.3773661420620293e+01 0 0 0
228 1 5.1526677982409241e-01 9.9857109657402798e+00 1.3774281288162609e+01 0 0 0
229 1 4.3030280224562105e+00 8.0915519232934141e+00 1.1880338134352467e+01 0 0 0
227 1 2.4097198471684464e+00 8.0919314804738551e+00 1.3774923213646113e+01 0 0 0
196 1 5.1513517586913082e-01 9.9850114289377192e+00 9.9868184066347752e+00 0 0 0
225 1 5.1571314982317629e-01 8.0916743840204894e+00 1.1880964111195416e+01 0 0 0
195 1 2.4096715566218334e+00 8.0914293013857890e+00 9.9866299657946218e+00 0 0 0
197 1 4.3041586455161021e+00 8.0916030735542162e+00 8.0922494507569596e+00 0 0 0
244 1 5.1473981913527156e-01 1.3773802452720487e+01 1.3774408403774871e+01 0 0 0
241 1 5.1483441943987152e-01 1.1879309923575246e+01 1.1880113510713839e+01 0 0 0
212 1 5.1467853957337895e-01 1.3773277563968177e+01 9.9861093468797666e+00 0 0 0
209 1 5.1564021449412156e-01 1.1879132376670741e+01 8.0922710800650286e+00 0 0 0
203 1 9.9856701031664432e+00 8.0915443702924765e+00 9.9863197817530409e+00 0 0 0
217 1 8.0919881383832948e+00 1.1879089113147829e+01 8.0915998310842241e+00 0 0 0
198 1 6.1987661828733636e+00 9.9853976180730655e+00 8.0921727008394537e+00 0 0 0
214 1 6.1981048738781244e+00 1.3774228101276378e+01 8.0923365970478933e+00 0 0 0
201 1 8.0923216977112897e+00 8.0910327219618203e+00 8.0915295380905548e+00 0 0 0
235 1 9.9851069332560876e+00 8.0919023644259287e+00 1.3774606897605377e+01 0 0 0
231 1 6.1974360939268838e+00 8.0919776160511088e+00 1.3774343164072448e+01 0 0 0
233 1 8.0912952780861325e+00 8.0917771091057009e+00 1.1880147930399874e+01 0 0 0
204 1 8.0917846282127286e+00 9.9854354064133304e+00 9.9853060945973624e+00 0 0 0
215 1 6.1972638865452705e+00 1.1879767402253837e+01 9.9856024462945712e+00 0 0 0
252 1 8.0912865322673770e+00 1.3773545204751041e+01 1.3773768774667658e+01 0 0 0
220 1 8.0915959140812408e+00 1.3773399584246922e+01 9.9852638478262428e+00 0 0 0
230 1 6.1973708658779936e+00 9.9858485907859098e+00 1.1879922986020315e+01 0 0 0
234 1 9.9850039805393749e+00 9.9855533089907809e+00 1.1880111576507492e+01 0 0 0
236 1 8.0911013323614505e+00 9.9861762506817779e+00 1.3773772645843893e+01 0 0 0
246 1 6.1975676204964190e+00 1.3773863162512049e+01 1.1879830939081298e+01 0 0 0
247 1 6.1968334303470138e+00 1.1879919699212897e+01 1.3773870637587185e+01 0 0 0
249 1 8.0912736566384797e+00 1.1879533125719998e+01 1.1879827681723480e+01 0 0 0
250 1 9.9853856619172969e+00 1.3773459294292691e+01 1.1879975047585141e+01 0 0 0
251 1 9.9850800606846750e+00 1.1879533119254287e+01 1.3774551759949597e+01 0 0 0
202 1 9.9861861172818625e+00 9.9853543451949598e+00 8.0915244050699791e+00 0 0 0
199 1 6.1979520261561776e+00 8.0914312696522384e+00 9.9862701804228724e+00 0 0 0
218 1 9.9861203419666342e+00 1.3773289472110735e+01 8.0913584749315586e+00 0 0 0
205 1 1.1879973997460869e+01 8.0912815023485187e+00 8.0918096864779727e+00 0 0 0
207 1 1.3773348727413840e+01 8.0913282337899535e+00 9.9870752393980329e+00 0 0 0
239 1 1.3773527103746195e+01 8.0917096708039153e+00 1.3775408635013800e+01 0 0 0
221 1 1.1879172436319736e+01 1.1878763398637764e+01 8.0915230789023944e+00 0 0 0
206 1 1.3773567402112883e+01 9.9848136723304428e+00 8.0921106360773898e+00 0 0 0
219 1 9.9856536109672653e+00 1.1879111442139752e+01 9.9856381393509821e+00 0 0 0
208 1 1.1879733901147336e+01 9.9852892230985528e+00 9.9861771581287719e+00 0 0 0
224 1 1.1879464347802728e+01 1.3772801650286544e+01 9.9857426693425531e+00 0 0 0
255 1 1.3773374160609654e+01 1.1879596432833642e+01 1.3774467805999214e+01 0 0 0
253 1 1.1879085162100889e+01 1.1879012522171937e+01 1.1880318915698647e+01 0 0 0
240 1 1.1879070299940569e+01 9.9859968458738564e+00 1.3774274700322405e+01 0 0 0
254 1 1.3772832587927299e+01 1.3772769471356206e+01 1.1880229998084406e+01 0 0 0
223 1 1.3773233255254183e+01 1.1878907100770517e+01 9.9858345820956931e+00 0 0 0
238 1 1.3773739437536776e+01 9.9855924807310181e+00 1.1880979462969981e+01 0 0 0
256 1 1.1878928691732561e+01 1.3773137958227613e+01 1.3774615752393993e+01 0 0 0
237 1 1.1879259704946099e+01 8.0915492374523534e+00 1.1880990358769429e+01 0 0 0
222 1 1.3773768456855610e+01 1.3773337033526124e+01 8.0922215125254038e+00 0 0 0

Velocities

8 -3.9904533541141491e+00 -3.9267474429915405e+00 1.4873685765933359e+01
19 -8.3680641710661554e+00 -6.7308551904859772e+00 5.7088388757662889e+00
24 -8.3345833762914694e+00 6.8983300418854689e+00 9.5018012427817222e+00
34 -6.4828422777995955e+00 -9.9642663294966756e+00 2.0278617170686126e+00
40 5.8760844271585633e+00 -8.1992634866495244e+00 1.4071222047033196e+00
50 -2.5494284189364431e+00 -5.9651470516285592e+00 -3.9993851974674204e+00
51 6.2908254388981657e+00 -8.0738659646353490e+00 -4.7196911345794665e-02
53 -5.5368178496227118e+00 -7.4513265364193764e+00 -7.5265425759724316e+00
56 -7.2811208070867099e+00 -2.0532977604273834e+00 8.6747833201789515e+00
3 7.5173337248598360e+00 -7.6380526892082399e+00 -4.0046556712114274e+00
49 4.3170260901876034e-01 4.6731247016836219e+00 1.1105479952545940e+00
52 -9.4546755847277630e+00 3.2521542534089436e+00 -1.6905104318099148e+01
20 1.4127189759209285e+01 2.8997959100124495e+00 -7.4633617500244211e+00
37 2.2942661598970910e+00 -1.5998228206511550e+01 5.7632266441753748e+00
35 -3.5029232199090075e+00 5.1232283051921046e+00 6.4540291672291836e+00
21 2.5236383539094942e+00 -1.1523249161210295e+01 5.4521500758554371e+00
4 -1.0481944939715692e+01 -3.8634745850309287e+00 -9.4250356529401031e+00
36 -3.3910850339802834e+00 -5.3578984832556085e+00 -1.7411886452909220e+00
1 -6.8411030058444888e+00 1.4018432653836856e+01 -3.0417252155765206e+00
33 -2.7133452794954871e+00 -4.7221325449221963e-01 5.0048419778882627e+00
2 3.4109727354896973e+00 -1.6607181837811653e+00 -9.1123142523811340e-01
18 2.3000671134829958e+00 -1.1658930782415709e+01 -2.0724984396223016e+00
17 1.5142490288223492e+01 -8.8628791939950062e+00 -1.1462552906314233e+01
5 -1.0276231848708166e+01 9.7439094594603439e+00 -1.6070701032231587e+00
43 -2.1999376171217180e+00 3.5393800313765293e+00 -1.3299999027440221e+00
23 -4.0843235283505237e+00 7.1854018273209821e+00 9.0200797508959987e+00
54 1.0508569518315618e+01 1.0401285592943266e-01 2.8747841063338071e+00
12 1.0209176331070925e+01 -6.5149960790634343e-01 6.6336654137550992e+00
27 -2.6866385158554853e+00 2.1544268361715262e+00 3.1897054848627824e+00
28 -7.3049284141883266e+00 -1.8655240529144161e+00 -1.3149067340467496e+01
38 2.7610690814196328e+00 3.9703532522424756e-01 3.2469387916178847e+00
44 5.9735611106945417e+00 6.8358835195946366e+00 -6.4237015968142561e+00
55 -4.6352482132757622e+00 4.8490834508004621e+00 7.9091905163715659e-01
57 3.3672709011889790e+00 -3.2940459828185644e+00 -2.0986589428677118e+00
58 -4.7765069797432309e+00 -1.7157758183893698e+01 1.2213119214785675e+00
60 2.8386419288017302e+00 -3.3461051114065836e+00 1.8185574066062271e+00
39 -6.2800101447484842e+00 -4.8220370871147340e+00 1.4379152250056604e+01
22 2.8443383862720664e+00 3.0336385178335830e+00 -1.8537189879555902e+00
25 5.1466928248527468e+00 5.5731548604651167e+00 2.4019661139376547e+00
6 -1.0624345216685427e+01 7.3176577153478306e-02 2.7540662988654323e+00
26 -8.2307643889109453e-02 -5.6497454775600922e+00 -4.8044486861450366e+00
9 -3.1263976571522228e-01 1.0184636682022729e+01 -1.0868135184718954e+01
41 -2.5256508075814921e+00 8.0948482977121223e+00 1.1956441159866543e+01
7 -3.0334095642279455e+00 -2.7525255193839482e-01 -4.1715986458530656e+00
11 9.8471986891680297e-02 1.4108866559016619e+01 2.1963110835350408e+00
42 2.7254072265186773e+00 7.8335329719467977e+00 3.1126263137588066e+00
59 -1.1001560501953715e+00 -3.8960192522230503e+00 -1.4370580473237341e+01
10 -9.8230639980188279e+00 4.3607692474501292e+00 5.6297448746259748e+00
14 -2.5893010123877147e+00 1.9270348456165447e+01 -8.4971929707618994e+00
63 7.1732544053146174e-01 -6.4725030109833703e-01 -2.9584326574563615e+00
48 -1.8538936422818755e+00 -7.6991304982622308e+00 -6.1501748904623144e+00
61 2.1821082398675262e+00 -1.9851228695176355e+00 1.5364996945120849e+01
16 1.2453202160037156e+00 2.6711705574208056e+00 1.7364022252917657e+00
46 5.7669810220237858e+00 -4.4197260664098730e+00 -1.9652533066385651e+00
31 2.9251300572386270e+00 -4.8114872420770061e+00 -7.3263171325894039e+00
64 -8.4155014363998504e+00 5.9058044865996910e+00 3.3795591498640851e+00
32 -3.2534590604432871e+00 -5.1276425278957447e+00 5.3916404506856586e-01
62 3.3128092627983130e+00 3.4209220993783136e+00 -1.1134880601578681e+01
47 -2.4987200143649915e+00 -1.5317777548598335e+00 1.2946264011530339e+01
30 -5.1594461030340080e+00 -1.0316773844432072e+01 1.4744668856303955e+00
29 2.1693019739460642e+00 8.8879136876629499e+00 5.2674662732878490e+00
45 -1.6989555958099543e+00 -5.7156905472975694e-01 5.4701680328217961e+00
15 4.1757760359648302e+00 -7.7558646824014632e+00 -5.3418141748190315e+00
13 -1.8024223677488744e+00 4.1983238100434823e+00 -2.8854657148207981e+00
72 -6.4085796975268794e+00 -3.6022189991614537e+00 1.5020374326930600e+01
83 -3.5066015088945344e+00 4.3897023777594342e+00 4.0594503956349115e+00
88 3.7720055025815618e+00 1.7201176037705296e-01 -3.3609352941391912e+00
98 -4.6543769938405255e+00 1.6772532450300311e+01 1.0964822993553470e+01
104 6.8433260552755177e+00 7.1208821278576346e+00 -1.0851353025076758e+00
114 -2.3508179328609491e+00 1.3822876476746732e+01 -4.5710197910633665e-01
115 8.4946707394845156e-01 -1.3259536870981522e+01 1.3189637845747123e+01
117 -1.9853132924075825e+00 4.8255202595850664e+00 -3.9792673432615150e-01
120 3.3319860721276977e+00 -2.5242950032581808e+00 8.7794762564929449e+00
82 -7.7447938665615090e-01 1.4526884174262915e+00 8.8607034438183376e+00
67 6.1375152993609223e+00 -6.7355869170384839e+00 6.8112424890239502e+00
100 1.3259031523599345e+01 3.6389918804110022e+00 -7.0791345470833305e+00
97 1.0095635219759185e+01 8.7969634458570987e+00 6.2265837324432907e+00
66 -3.9592473737342120e+00 -8.5659050463593278e+00 -5.8427547661355526e+00
101 -2.2382075363907030e+00 -4.0169649727241108e+00 -3.5187559263101029e+00
116 1.4990284332101635e+00 1.6766575922493125e+01 -6.6104474765388055e+00
85 -4.8147633595534591e+00 -1.6445098752929717e+01 -6.7812526602863219e+00
113 -7.2553535275371841e+00 3.0745668979960921e+00 -1.1884166833156857e+00
68 -2.0704930394511996e+00 -1.7934084951137299e+00 -8.3488018965649449e+00
81 1.2221982181545791e+01 4.4514970983071835e+00 -3.7714460516900492e+00
84 2.2146579952827166e+00 -1.0569919150684711e+01 -4.8961109333440165e+00
69 4.2467815129323796e+00 5.9372070217478807e+00 -3.9648061307807234e+00
65 1.6333302056142998e+01 -4.1389021267691772e+00 -1.1006483496457204e+00
99 6.6656714582703858e+00 7.8658711428410322e-01 -2.9906837557276349e+00
70 9.4067463117921551e-03 -3.0459716695740342e+00 3.7754824347258169e+00
90 1.3588936334522559e+00 -3.1182165122660090e+00 8.2258589902787680e+00
75 3.9872818858363237e+00 3.3968732331313429e+00 2.7505872775153470e+00
87 -3.1575424497434579e+00 3.0570743026007046e+00 -1.1077640501594942e+01
76 -4.7221446095030108e+00 5.0917486250222455e+00 -4.7904560911360250e-01
124 1.0789757390447297e+01 -3.0694880652293755e+00 -1.0431788979352117e+01
92 -4.6778768539645181e+00 -7.3383962829157967e-01 -8.0657819758063276e+00
102 4.3965183160616199e+00 -2.0082205909828371e-01 2.4683221387491603e+00
106 7.0198608256949457e+00 1.5590910038013177e+00 8.6888565125213422e+00
108 4.4062544447123769e-01 4.8561080758186357e+00 1.5107484456086595e+00
118 -7.3421808527316168e+00 1.9304703483441346e+00 5.9868214419038868e+00
119 -6.1123727973630970e+00 7.6575942055989099e+00 4.4207272944433820e+00
121 -3.8101872561863317e+00 6.9868142675557756e+00 -9.0166272075541123e+00
123 -5.8631936943404706e-01 -7.9071159449588171e+00 5.0485264393821687e+00
74 -2.9604018809671526e+00 1.6475628848479648e+01 -8.8526653684916958e+00
86 2.5105975532964286e-01 -2.6567231688797697e+00 -5.6886379260666526e+00
73 -8.3655820827165019e+00 -1.5121193351237222e+01 4.6923065486915760e+00
89 1.6734394405505801e+00 -1.4977707379335885e+00 5.6797273506281689e+00
105 9.9144521034018833e+00 -1.7766559440017224e+00 -8.6408256731632953e+00
107 -1.4886494128287026e+01 5.0253568645387956e+00 -7.2719605056768630e+00
71 4.9564232251016387e+00 -4.4140985739740435e+00 -2.2033941330850477e+00
103 1.1124007140059604e+01 8.0390030579479965e-01 2.4301301854399324e+00
94 2.3319293996460959e+00 3.7381470975014244e+00 1.5269452450933105e+00
93 -1.5511793711908006e+00 2.9208894857413292e-01 -1.9651927831051166e+00
91 1.8950469392005989e+00 -1.0145134321296911e+01 -1.3913513104052968e+00
122 -6.2258716156162283e-02 -3.1750858902669936e+00 -3.6176063311945543e+00
125 -1.8304004478744056e+00 -6.6033578414088998e+00 -1.2297362783441443e+01
128 5.6719075117883868e+00 -9.3517565655069372e+00 1.2648838325688034e+00
127 7.9182184687897399e+00 7.5005782006215460e+00 -4.2353240076827756e+00
126 5.6195578955577759e+00 -4.5054436793905328e-01 5.7836473813414129e+00
95 -8.3128701733877675e-01 6.0902173505173629e-02 3.4032262095592658e-01
112 -8.0898480556290906e+00 -1.4561201127802237e+00 -3.6970632935464796e+00
96 -4.3008326448882519e+00 2.9616971512994028e+00 -3.5232274510058446e+00
110 6.0025153992519487e+00 5.4219213892614713e+00 5.9480198335903776e+00
80 -8.6965991999417493e+00 -1.2600285700110685e+01 1.8656816446716301e-01