LAMMPS (8 Feb 2019)
Processor partition = 2
echo both

include         in.partitions
variable p_id world   0 1 2 3
include		in.temp
variable	temperature equal 1500.0
variable	tempDamp equal 0.1 # approx 0.1 ps
include		in.pressure
variable	pressure equal 300000.
variable	pressureDamp equal 1.0
include 	in.seed
variable	seed world 74581 3459 97394 49764
units		metal
read_restart    Restart.lmp.${p_id}
read_restart    Restart.lmp.2
  restoring atom style atomic from restart
  orthogonal box = (-0.813216 -0.813216 1.69914) to (15.9656 15.9656 13.4533)
  2 by 2 by 2 MPI processor grid
  pair style eam/alloy stores no restart info
  256 atoms
include 	in.setup
variable	out_freq equal 500
variable	out_freq2 equal 500

neigh_modify    delay 10 every 1
include		in.al
### Argon Potential Parameters ###
pair_style 	eam/alloy
pair_coeff 	* * Al99.eam.alloy Al

timestep	0.002 # According to Frenkel and Smit is 0.001

thermo          ${out_freq}
thermo          500
thermo_style 	custom step temp pe press lx


restart 	${out_freq} Restart.lmp.${p_id} Restart2.lmp.${p_id}
restart 	500 Restart.lmp.${p_id} Restart2.lmp.${p_id}
restart 	500 Restart.lmp.2 Restart2.lmp.${p_id}
restart 	500 Restart.lmp.2 Restart2.lmp.2



timer 		timeout 23:50:00 every 1000
New timer settings: style=normal  mode=nosync  timeout=23:50:00

# NPT

include		in.dump
dump            myDump all atom ${out_freq2} dump.al.${p_id}
dump            myDump all atom 500 dump.al.${p_id}
dump            myDump all atom 500 dump.al.2
dump            myDcdDump all dcd ${out_freq2} out.${p_id}.dcd
dump            myDcdDump all dcd 500 out.${p_id}.dcd
dump            myDcdDump all dcd 500 out.2.dcd
dump_modify	myDump append yes
dump_modify     myDcdDump append yes



fix             1 all plumed plumedfile plumed.dat outfile plumed.out
fix             2 all nph aniso ${pressure} ${pressure} ${pressureDamp} couple xy
fix             2 all nph aniso 300000 ${pressure} ${pressureDamp} couple xy
fix             2 all nph aniso 300000 300000 ${pressureDamp} couple xy
fix             2 all nph aniso 300000 300000 1 couple xy
Resetting global fix info from restart file:
  fix style: nph, fix ID: 2
fix             3 all temp/csvr ${temperature} ${temperature} ${tempDamp} ${seed}
fix             3 all temp/csvr 1500 ${temperature} ${tempDamp} ${seed}
fix             3 all temp/csvr 1500 1500 ${tempDamp} ${seed}
fix             3 all temp/csvr 1500 1500 0.1 ${seed}
fix             3 all temp/csvr 1500 1500 0.1 97394
fix             4 all momentum 10000 linear 1 1 1 angular

run             25000000 upto # 50 ns
All restart file global fix info was re-assigned
Neighbor list info ...
  update every 1 steps, delay 10 steps, check yes
  max neighbors/atom: 2000, page size: 100000
  master list distance cutoff = 8.28721
  ghost atom cutoff = 8.28721
  binsize = 4.1436, bins = 5 5 3
  1 neighbor lists, perpetual/occasional/extra = 1 0 0
  (1) pair eam/alloy, perpetual
      attributes: half, newton on
      pair build: half/bin/atomonly/newton
      stencil: half/bin/3d/newton
      bin: standard
Per MPI rank memory allocation (min/avg/max) = 3.995 | 3.995 | 3.995 Mbytes
Step Temp PotEng Press Lx 
 4999500    1465.1215   -727.53126    309541.45    16.778835 
 5000000    1331.6374   -731.47783    304952.76    16.830496 
 5000500    1625.9839    -725.7575    312637.99    16.812354 
 5001000    1410.6077   -733.27812    298456.77    16.499999 
 5001500    1488.0896   -735.03582    289543.01    17.070456 
 5002000    1441.0335     -733.605    307245.14    16.327414 
 5002500    1684.8371      -733.64    306374.88    16.485342 
 5003000    1344.4415   -736.11747    295217.96    16.920986 
 5003500    1456.9879   -739.33782    294925.08    16.483017 
 5004000    1471.8462   -734.35353    288833.78    17.024082 
 5004500    1398.1708   -737.54224     301098.7    16.210379 
 5005000    1519.1881   -742.27478    293132.38    16.257165 
 5005500    1468.5645   -738.41307    301616.21    16.197464 
 5006000    1592.6452   -740.02899    319185.12    15.819412 
 5006500    1444.8539    -751.9624    292389.46    15.663795 
 5007000     1629.138   -767.55026    285339.13    15.178555 
 5007500    1318.9784   -766.93221    284995.73    15.115665 
 5008000    1560.5078   -765.01166    292465.63     15.24025 
 5008500    1655.4021   -769.81401    299008.84    15.092806 
 5009000    1601.1313   -756.43648    311066.15      15.1281 
 5009500    1616.7716   -759.91337    307350.23    15.050797 
 5010000    1493.0291   -753.33944    308665.17    15.284922 
 5010500     1559.814   -742.94025    312185.75    15.696212 
 5011000    1503.6366   -733.82964    303008.67    16.395629 
 5011500    1541.8745   -747.43567     294529.3    15.957786 
 5012000    1605.5938   -745.97511    303570.27    15.610556 
 5012500    1541.5671   -732.28473    324995.63    15.880332 
 5013000     1574.278   -732.42522    301085.56    16.606333 
 5013500    1616.5765     -731.634    312645.37    16.388347 
 5014000     1480.265   -733.90016    297259.63    16.963035 
 5014500    1490.7925   -737.57942    297242.14    16.644832 
 5015000    1422.4487   -735.50083    316180.71    15.999753 
 5015500    1623.8335   -743.93741    308121.99    15.569438 
 5016000     1423.956   -748.01931    290012.92    15.783269 
 5016500    1521.3074   -748.59228    280352.32    16.130759 
 5017000    1574.3607   -733.73058    303088.02    16.500758 
 5017500     1349.453   -739.27251     281609.2    16.486489 
 5018000    1501.8226   -726.37216    311614.72    16.778116 
 5018500    1432.7007   -731.73726    301079.31    16.913979 
 5019000    1452.1974   -733.47225    301263.34    16.575446 
 5019500    1391.3766   -741.38091    296732.96     16.16742 
 5020000    1424.5954   -747.33073    282593.99    16.176471 
 5020500    1411.9119   -732.43192    296432.78    16.841922 
 5021000     1549.587   -731.84325    302091.36    16.864065 
 5021500    1335.8785   -734.51618    302895.85    16.320445 
 5022000    1511.6344   -740.58552    302453.42    16.116556 
 5022500     1430.402   -733.23295    303999.99    16.688549 
 5023000    1511.9239   -730.08764    307342.71    16.540708 
 5023500    1514.9313   -739.42927    303971.68    15.968521 
 5024000    1667.3147   -731.92826    304364.83    16.609043 
 5024500    1336.3836   -739.28154    294045.51    16.463508 
 5025000    1531.1014   -731.14858    306734.55    17.036318 
 5025500     1514.456   -735.40987       299134    16.533896 
 5026000    1534.7852   -734.72176    294803.85    16.638541 
 5026500    1446.4895   -731.50401    323464.89    16.301949 
 5027000    1620.3769   -732.29557    311571.22    16.487399 
 5027500    1465.5382   -740.85184    290186.46    16.632828 
 5028000    1567.9191   -736.98018    290530.57    16.658424 
 5028500    1516.2007   -727.12223    305579.18    16.884621 
 5029000    1658.8067   -742.30553    292798.69    16.233617 
 5029500    1597.8554   -745.93875    288756.63    16.316113 
 5030000    1573.3722   -733.35196    298585.05    16.605153 
 5030500    1443.9242   -723.94702    323076.77    16.508486 
 5031000    1498.5706   -736.85909    289438.29    16.687294 
 5031500    1455.2011    -733.8814    313810.25    16.354375 
 5032000     1436.975   -731.58048    304358.88    16.968731 
 5032500    1383.2728   -738.20363    290014.61    17.011395 
 5033000    1461.9312   -735.33156    296031.59    16.765362 
 5033500    1557.3708   -725.40056    322999.59    16.748818 
 5034000    1544.1719   -727.96221     307919.9    16.964889 
 5034500    1490.6225   -735.84507    284673.25    16.765772 
 5035000     1502.912   -737.69911    299014.14    16.354027 
 5035500    1584.6814   -738.37827    304116.74    16.255969 
 5036000    1328.4018   -746.19572    296061.97    15.829608 
 5036500    1622.4605   -763.48322    298021.29    15.103803 
 5037000    1626.6344   -764.81829    286472.81    15.240643 
 5037500    1527.1632   -766.45916    277093.26    15.359571 
 5038000    1321.8798   -755.44967    290202.79    15.422898 
 5038500    1641.0834   -760.91624    293285.92    15.274978 
 5039000    1490.8437   -753.07384    313279.42    15.228628 
 5039500    1571.2717   -746.76066    324498.23    15.177984 
 5040000    1504.1212   -755.98875    309323.63    15.201126 
 5040500    1523.7053   -757.43507    302223.84    15.405978 
 5041000    1565.1034   -764.73149    294576.86    15.075408 
 5041500    1431.7245   -751.49166    285140.98    15.745184 
 5042000    1476.4375   -757.55445    288742.29    15.493124 
 5042500    1483.6705   -755.76644    289646.01    15.512769 
 5043000    1455.5973   -759.20596    287030.42    15.425758 
 5043500    1530.9267   -758.50543    310772.68    15.051992 
 5044000    1439.7525    -754.2723    314122.93    15.135176 
 5044500    1511.9167   -752.62784    315957.11    15.167215 
 5045000    1568.1764   -756.71233    305182.95    15.332193 
 5045500     1407.273   -761.91636    299267.55    15.152796 
 5046000    1521.6419    -766.1974    290033.14    15.240947 
 5046500    1491.0768   -772.08967    276597.02    15.162332 
 5047000    1567.5024   -764.66119    284508.89    15.217669 
 5047500    1566.4698   -768.15732    279898.16     15.18467 
 5048000    1445.6519   -760.49719    295477.37    15.320233 
 5048500    1529.7306   -757.32664    298664.49    15.497113 
 5049000    1560.0543   -754.25831    314281.19    15.047393 
 5049500    1494.2358   -755.27872    315704.14    15.034939 
 5050000    1419.6346   -750.93068    319246.35    15.023369 
 5050500    1493.3341   -756.63632    308000.87    15.222322 
 5051000     1396.968   -760.83181     300736.9    15.289928 
 5051500    1451.1485   -760.71274    296717.36    15.335638 
 5052000    1520.4591    -746.6615    286469.41    15.944653 
 5052500    1452.6935   -757.07223    278961.81    15.621759 
 5053000    1511.5549   -764.91885    300799.47    15.208848 
 5053500    1349.5783   -754.88177    307830.83     15.24631 
 5054000    1544.4083   -747.26609    315478.25    15.437048 
 5054500    1408.7918    -742.6465    310460.49    15.708574 
 5055000    1532.5806   -761.39645    279964.63    15.587459 
 5055500    1534.5803   -763.17996    288728.18    15.302786 
 5056000    1561.5387   -750.91845    292684.41    15.701347 
 5056500    1421.7499   -732.44204    310437.45    16.456777 
 5057000     1501.213   -735.82008    298733.63    16.514096 
 5057500    1542.9627    -724.4301    326282.88    16.461529 
 5058000    1536.7742   -738.13244    291377.34    16.593553 
 5058500    1374.9545   -740.70886    282023.78    16.752815 
 5059000    1531.0908    -730.5193     310010.4    16.400505 
 5059500    1688.2904   -734.30246    301583.71    16.938563 
 5060000    1454.9256   -740.26336    286658.15    16.913457 
 5060500    1431.3488   -734.78766    292687.69    16.942641 
 5061000     1630.793   -726.75114    312792.79    16.994584 
 5061500    1629.1663   -741.55312    281917.14    16.612266 
 5062000    1589.1206    -743.0011    300617.63    16.014857 
 5062500    1524.3667   -739.62027    319268.49     15.63153 
 5063000    1655.3469   -745.00002    302211.88    15.709268 
 5063500    1432.3662   -743.78568    286592.73    16.269173 
 5064000    1428.1848   -731.20343     316387.1    16.666154 
 5064500    1576.9123   -738.27715    294462.51    16.541518 
 5065000    1509.6883   -730.10953    302865.83     16.78003 
 5065500    1567.1443   -732.59917    307602.75    16.520872 
 5066000    1502.6305   -739.42027    289172.76    16.770541 
 5066500    1503.1931   -735.84409    296625.47    16.759494 
 5067000    1514.8701   -734.06124    310250.11    16.292128 
 5067500    1363.9011   -741.15738    287920.14    16.524367 
 5068000    1439.0612   -731.21184    300246.89    16.677596 
 5068500    1579.2541   -734.39863    315676.42    16.233075 
 5069000    1462.9173   -747.36159    290218.51    16.095256 
 5069500    1346.3356   -743.21028    291001.77    16.174125 
 5070000    1530.0874   -732.54659    317750.95    16.410601 
 5070500    1547.2332   -729.31037    313176.89    16.459269 
 5071000    1470.6368    -743.1999    270116.59    17.035728 
 5071500      1457.38   -732.06439    301991.26    16.755429 
 5072000    1402.6032   -730.74888     302552.8    16.756191 
 5072500    1462.9618   -732.30968    302877.32    16.696402 
 5073000    1395.4871   -730.32716    318085.77    16.826689 
 5073500    1565.8453   -734.47204    297705.99    16.814515 
 5074000    1416.1497   -734.74646    289939.26    16.921254 
 5074500    1450.3266   -728.03105    308745.64    16.785631 
 5075000    1475.0494   -730.07353     303680.1    16.828132 
 5075500    1520.6844   -729.84475    308230.31    16.386978 
 5076000     1531.902   -740.61226    281220.51    16.997486 
 5076500    1395.5545   -734.16366    298583.94    16.445056 
 5077000     1389.302   -728.28421    305139.33    16.630949 
 5077500    1685.1318   -733.72933    304179.61    16.414534 
 5078000     1543.913   -745.42564    300167.74    15.797844 
 5078500    1566.1895   -751.68648    291472.23    15.783162 
 5079000    1411.5678   -734.59421    299474.96    16.397595 
 5079500    1516.4386   -732.90382    301872.63    16.894895 
 5080000    1499.8033   -733.71385    294689.61    16.737676 
 5080500    1437.2355   -743.41788    288449.27    16.382893 
 5081000    1525.1541   -728.49974    323456.98    16.244917 
 5081500    1551.2576   -735.03823    298018.22    16.727769 
 5082000    1388.4604   -733.03913    299165.43    16.982219 
 5082500    1508.2859   -727.19245     314210.9    16.293744 
 5083000    1651.5994   -736.77332    298074.17    16.576183 
 5083500    1524.3417    -733.9698    294859.65    16.758815 
 5084000    1556.7047   -731.36819    309785.15    16.650492 
 5084500    1462.4745   -732.90687    305798.33    16.695242 
 5085000    1499.7035    -739.3252    293771.64    16.767184 
 5085500    1360.0542   -731.06115    303296.41     16.85106 
 5086000    1506.7497   -725.85615     312725.8    16.808348 
 5086500     1582.273   -740.97179    278686.21     16.85853 
 5087000    1438.9374   -735.53525     296088.3    16.577602 
 5087500    1513.3022   -729.76423    317155.86    16.317392 
 5088000    1538.6729   -741.51044    302335.32    15.924687 
 5088500    1588.6564   -753.53743    308990.15     15.38202 
 5089000    1528.9959   -754.03203    318457.89    15.254717 
 5089500    1563.4052   -747.20416    321346.66    15.230898 
 5090000    1455.2018    -754.8771    312405.78    15.295763 
 5090500    1540.2467   -761.32837       298833    15.091877 
 5091000    1478.1699   -766.98463    285302.09    15.164502 
 5091500    1362.5238   -776.45492    263999.71     15.14673 
 5092000    1563.7959   -760.88111    288898.88    15.158157 
 5092500    1495.5932    -765.1344    297127.92    15.192451 
 5093000    1547.5577   -743.05524    305910.88    15.758232 
 5093500    1553.3356   -753.25936    315984.16    15.272201 
 5094000    1440.5549    -762.3907    301216.71    15.064794 
 5094500    1586.2273   -764.02109    294749.86    15.018129 
 5095000    1503.9814   -760.31263    284907.26    15.531667 
 5095500    1445.1327   -751.24695    286461.41    15.688684 
 5096000    1516.9614   -758.93688    289641.25    15.383199 
 5096500    1500.2908   -754.24566     301516.7    15.489162 
 5097000    1529.7636   -750.06976    302261.58    15.655654 
 5097500    1432.6156   -761.56743    298735.24    15.282161 
 5098000    1539.2636    -759.8309    305806.53    15.138696 
 5098500     1602.828   -763.74634    295143.37    15.028664 
 5099000    1598.3639   -762.93922    291605.28    15.260217 
 5099500    1496.8329   -767.11798    283301.08    15.407298 
 5100000    1379.3916   -768.94428    282107.83    15.142199 
 5100500    1459.6505   -760.88676    298423.23    15.316258 
 5101000    1470.3724   -747.14405    311548.13    15.425091 
 5101500    1616.0649   -756.86831    310754.41    15.031949 
 5102000    1451.8041   -756.38568    309615.78    15.144345 
 5102500    1617.0081   -762.02476    295846.14    15.411821 
 5103000    1613.0519   -765.84807    291154.42    15.262276 
 5103500    1562.5583   -765.45177    279302.48     15.41237 
 5104000    1680.6632   -762.16835    285460.72    15.383154 
 5104500    1450.6111   -756.49936    301966.52    15.369562 
 5105000    1502.7362   -755.54578    312611.24    15.237161 
 5105500    1401.5176   -749.42204    335475.94    15.114098 
 5106000    1532.4593   -757.99219    313823.41    15.016631 
 5106500    1538.0869   -758.97483    307956.59    15.014134 
 5107000    1425.2027   -763.92393    296058.37    15.089882 
 5107500    1380.8153   -768.01393    282167.07    15.330491 
 5108000    1497.5101   -769.88468    281133.03    15.122979 
 5108500    1264.1756   -759.89399    300523.69    15.162999 
 5109000    1540.5905   -761.41642    304294.19    15.098902 
 5109500    1506.1567   -747.90971    317099.19    15.359489 
 5110000     1467.727   -755.01311    317111.94    15.050281 
 5110500    1522.8806    -761.0322    301680.86    15.193299 
 5111000    1489.4775   -764.47242    290509.51    15.266933 
 5111500    1440.1647   -760.27924    285349.49    15.465709 
 5112000    1530.9376   -765.72724    277770.83    15.506797 
 5112500    1630.9654   -766.70582    296655.31     15.12228 
 5113000    1460.8215    -760.2924    307063.15    15.254596 
 5113500    1579.5135   -750.73613    318684.47    15.350751 
 5114000     1497.937   -753.35416    316039.69    15.179695 
 5114500    1601.8128   -751.17348    317578.54    15.218568 
 5115000     1499.742   -753.27229    319464.27     15.15846 
 5115500    1556.8677   -758.07487    309152.61    15.061562 
 5116000    1453.7185   -753.34256     292719.3    15.628802 
 5116500    1536.1559   -755.30223    288363.56    15.658972 
 5117000     1458.404   -750.65638    291740.16    15.751194 
 5117500    1418.6286   -762.33416    298370.97    15.080806 
 5118000    1471.1715   -761.33974    297815.05    15.177063 
 5118500    1496.8865   -766.46982    288864.79    15.201205 
 5119000    1649.0621   -748.11604    294105.63    15.840724 
 5119500    1539.3645   -755.67213    303267.04    15.333615 
 5120000    1483.1542   -756.07611    308477.96    15.372108 
 5120500    1521.7182   -746.36286     299556.1    15.814527 
 5121000    1472.0886    -740.2052    288468.26    16.376098 
 5121500     1335.317   -735.94374    289328.44     16.74368 
 5122000     1595.061   -732.55299    308911.79    16.742475 
 5122500    1508.5533   -726.23376    311940.52    16.791257 
 5123000    1391.8639   -742.63965    284409.65    16.688234 
 5123500    1572.7082   -746.20818    277199.75    16.604333 
 5124000    1615.0177   -733.27552    308744.88    16.662695 
 5124500    1485.5698   -728.30334    305016.37    17.037039 
 5125000    1484.4279   -736.61692    295398.08    16.541717 
 5125500    1522.1962    -735.8877     298510.9     16.48863 
 5126000    1450.8658   -732.58373    296109.48    17.009798 
 5126500    1485.3925   -733.17359    306993.18     16.37553 
 5127000    1521.4973   -726.59447    316482.68    16.919634 
 5127500    1487.7173    -732.2174    299721.59    16.770504 
 5128000    1403.9744   -729.04952    301260.41    16.881951 
 5128500    1442.2067   -733.09516    316799.24    16.134962 
 5129000    1491.4383   -735.12388    312245.97    16.062124 
 5129500    1456.2326    -741.3087    294629.16    16.351123 
 5130000    1592.2191   -731.96658    307091.09    16.671791 
 5130500    1648.1044   -731.50275    307283.52    16.621732 
 5131000     1543.016   -738.92532    300273.08    16.299196 
 5131500    1377.3544   -741.92319    288575.92    16.346566 
 5132000     1593.225   -731.88726    302981.65     16.96361 
 5132500    1428.5666   -741.26551    289855.03     16.40689 
 5133000    1670.3949   -735.42149    306508.88    16.583818 
 5133500    1508.2369   -734.63963    303104.32    16.622785 
 5134000    1558.9045   -732.10475    299513.84    16.838512 
 5134500    1432.0475   -742.80389    283380.72      16.6579 
 5135000    1595.3616   -736.06246    298233.37    16.605664 
 5135500    1484.4582   -733.80374    307396.76    16.199124 
 5136000    1417.7033   -740.91452    295283.97    16.081351 
 5136500    1471.1705    -733.8729    293262.44    16.905561 
 5137000    1462.6438   -732.24268    299857.31    16.777896 
 5137500    1568.2412   -727.56639    314054.78    16.622494 
 5138000    1500.0086   -741.66302    288021.17    16.440699 
 5138500    1334.4769   -738.89984    285075.19    16.704888 
 5139000    1469.2066   -729.66556    304835.22    16.892393 
 5139500    1512.1222   -729.31542    295808.23    16.771601 
 5140000    1550.2436   -731.39315    302066.36    16.592516 
 5140500    1500.2068   -731.49389    315449.01    16.304667 
 5141000    1511.2995   -742.64405    292951.37    16.041283 
 5141500    1481.5939   -737.87098    300580.95    16.114455 
 5142000    1611.7334   -733.19688    299474.66    16.900209 
 5142500    1458.9193   -733.73495     298377.1    16.823353 
 5143000    1505.4803   -736.83239    292854.37    17.037945 
 5143500    1511.6127   -732.46898    306475.19    16.385081 
 5144000    1494.9378   -734.95414    288805.41    17.140593 
 5144500    1421.8048   -728.65085    305491.14    16.668282 
 5145000    1425.1183   -730.76393    310927.14    16.486668 
 5145500    1442.7658   -734.64731    294048.81    16.788451 
 5146000    1530.2818   -740.58329    284852.25    16.551002 
 5146500    1557.4739   -729.17746    311066.91    16.629003 
 5147000    1516.2152   -726.51384    311162.58    16.978435 
 5147500    1496.4092   -741.08714    288329.37    16.571467 
 5148000    1414.4556   -729.97484    303290.98    16.847149 
 5148500    1377.3073   -737.60186    291675.68    16.658526 
 5149000    1436.5404   -728.57445    314939.14    16.607502 
 5149500     1424.323    -739.3483    284235.92    16.597267 
 5150000    1473.0592   -737.05712    293482.79    16.668162 
 5150500    1387.7855    -729.2955    307094.78    16.937131 
 5151000    1372.3046   -736.09807    302416.63    16.507691 
 5151500    1460.5508   -743.52234    285136.07    16.376784 
 5152000    1478.7627   -736.22726    297396.84    16.629027 
 5152500    1493.4882   -731.79196    311394.94    16.319122 
 5153000    1637.8388   -729.42341    305224.97     16.72444 
 5153500    1446.8879   -730.86592    301831.04    16.870318 
 5154000    1523.9941   -743.24825    276416.01    16.621317 
 5154500    1336.8452   -739.58576    291631.95    16.568495 
 5155000    1575.2859   -744.52972    282222.46    16.475968 
 5155500    1567.7263   -738.33798     306594.1    16.214925 
 5156000    1537.7088   -730.39756    304011.03      16.7655 
 5156500    1448.4821   -744.88101    282315.85    16.487047 
 5157000    1414.7101   -735.21627    304694.73    16.308109 
 5157500    1423.2047   -747.91741    288013.31    15.924487 
 5158000    1385.3406   -753.81906    279227.68    15.775571 
 5158500    1455.6757   -753.48615    287514.95    15.850144 
 5159000    1378.1209   -756.12279    303809.74    15.445112 
 5159500    1496.0824   -756.23393    305583.72    15.335545 
 5160000    1532.7289   -756.05133    304509.63    15.338824 
 5160500    1509.0752    -754.6326    319128.35    15.070124 
 5161000    1470.8556   -758.49765    312474.42    15.105942 
 5161500    1511.6829   -760.97094    296758.16    15.068246 
 5162000    1605.9875   -770.02409    281967.02    15.132053 
 5162500    1495.4703   -769.00755    285712.62    15.228844 
 5163000    1540.0763   -757.05586    305522.97    15.302609 
 5163500    1478.7876   -755.17353    311438.52    15.232554 
 5164000     1580.564   -751.31509    326966.73     15.21611 
 5164500    1646.4048   -746.06756    325298.59    15.383329 
 5165000     1339.037   -758.03676    304483.38    15.124891 
 5165500    1552.2847   -764.60972       290289    15.149365 
 5166000    1468.9086   -768.34052    278737.14    15.295423 
 5166500    1504.3631   -766.71788    277579.68     15.34383 
 5167000    1530.1759   -760.79411     297878.1     15.28653 
 5167500    1404.6472   -757.49634    304435.27    15.301945 
 5168000    1467.5721    -760.7222    311289.45     14.96521 
 5168500    1590.3151   -756.50364    307138.26    15.323663 
 5169000    1524.2441   -762.42809    297178.66    15.037908 
 5169500    1429.5356   -763.30679    291990.02    15.047622 
 5170000     1444.238   -766.80312     279376.6    15.097725 
 5170500    1364.2295   -765.09981    277456.61    15.382786 
 5171000    1401.6491    -760.8332    288722.98      15.3202 
 5171500     1546.932    -749.0947    305090.63    15.483932 
 5172000    1546.7901   -737.02902    304189.87    15.979912 
 5172500    1554.2646   -732.16182    298489.46    16.878182 
 5173000    1543.9562   -733.17213    298330.28    16.820887 
 5173500    1612.3353   -727.34778    323820.34    16.613192 
 5174000     1465.825   -734.33657    300295.95    16.480878 
 5174500    1500.8007   -739.36909    290890.54     16.75517 
 5175000    1550.2675   -725.12762    314478.41     16.85388 
 5175500    1631.6265   -740.08233    285766.49    16.682894 
 5176000    1583.6561   -735.09604    295422.77    16.534761 
 5176500    1567.5745   -745.80774    297635.42    16.017757 
 5177000    1532.4581    -742.6913    282025.95    16.405446 
 5177500    1557.2919   -734.11545    300540.79    16.879522 
 5178000    1575.3279   -726.57616    311218.53    16.800412 
 5178500    1509.7754   -738.29397    282206.91     16.86802 
 5179000    1546.6623   -728.28428    295769.57    16.976845 
 5179500    1489.2623   -729.57585    304673.44    17.057781 
 5180000     1534.656   -734.80446    301503.78    16.517389 
 5180500    1556.3721   -730.78425    309927.24    17.053767 
 5181000     1472.888    -736.9111    289030.81    16.936112 
 5181500    1426.9626   -729.97209    296041.43    16.858156 
 5182000    1713.9806   -735.93807     296986.1    16.800254 
 5182500    1429.0001    -731.6983    304201.55    16.491542 
 5183000    1584.4519   -730.89278    313207.36    16.380162 
 5183500    1425.1591   -738.06443    304782.48    16.150136 
 5184000    1453.5606   -757.51694    284569.65    15.541669 
 5184500    1442.1528   -749.60456    299844.75    15.685493 
 5185000     1552.389   -743.38567    312275.74    15.652868 
 5185500     1401.508   -749.69334    305010.27    15.522243 
 5186000    1382.2042   -749.88067    295698.36    15.678418 
 5186500    1478.0668   -765.30157     273915.4    15.478621 
 5187000    1494.7499   -767.20479    287659.09    15.030466 
 5187500    1491.1738   -758.99994     304118.1    15.002557 
 5188000    1491.9389   -751.90723    329949.88    14.990885 
 5188500    1489.0994   -754.73699       319399    15.197959 
 5189000    1696.8371   -757.18041    305208.92    15.260366 
 5189500     1650.531   -754.14043    308364.48    15.280034 
 5190000    1553.7043   -748.77398    317778.43    15.354432 
 5190500    1413.4841   -761.63113     303169.4    15.028018 
 5191000    1489.1237   -750.03645    304990.28    15.415699 
 5191500    1463.0335   -760.44678    306046.26    15.072558 
 5192000    1456.5216   -755.65325    317780.01     15.06809 
 5192500    1489.7061   -750.85623    307061.26    15.452926 
 5193000    1462.6047   -754.36419    286475.64    15.722802 
 5193500    1472.8315   -751.40515    283889.75    15.905835 
 5194000    1582.9932   -735.99296    305949.25     16.57995 
 5194500    1450.9663   -736.43444    300146.09    16.467879 
 5195000    1494.1929   -738.64284    293607.62    16.483287 
 5195500    1537.5304   -731.56492    309623.03    16.723341 
 5196000    1467.3631   -735.38013       288979    16.852859 
 5196500    1389.2072   -728.46633    306864.27    16.851545 
 5197000    1609.4319   -726.99046    318508.15    16.878447 
 5197500     1516.862   -734.68952    298505.19    16.801437 
 5198000    1556.1125    -737.4038    288214.39     16.97756 
 5198500    1514.1171    -731.5555    306155.91    16.689685 
 5199000     1481.115   -724.68389       329005    16.488942 
 5199500     1408.758   -738.50171     285976.7     16.78311 
 5200000    1562.6577   -738.00676    289560.45    16.552994 
 5200500    1506.0401   -732.53373    305974.19    16.601307 
 5201000    1388.7138   -731.98885    297675.49    16.858424 
 5201500    1713.9107    -744.2751    279295.21     17.08929 
 5202000    1451.2797   -749.06689    258080.81    17.054118 
 5202500    1550.8205   -732.03498    305395.74    16.774116 
 5203000    1524.8994   -735.52863    295265.68    16.752197 
 5203500     1382.086   -740.50634    287167.36    16.475365 
 5204000    1587.8271   -727.08049    316033.07    16.479815 
 5204500     1556.095   -736.65823    294400.09    16.548905 
 5205000    1520.5155   -734.77727    295508.94    16.866523 
 5205500    1591.4948   -732.15695    303662.54    16.957658 
 5206000    1495.0463   -724.29147    316826.57    16.742552 
 5206500    1510.8389   -737.21201    286902.62    17.174026 
 5207000    1485.2447   -737.11495    295847.43    16.524901 
 5207500     1351.575   -727.67266    314670.22    16.340794 
 5208000    1574.4259   -736.20417    289910.43    16.927775 
 5208500    1459.2178   -732.63103    302164.38    16.700789 
 5209000    1338.7891   -735.84141    300060.75    16.555522 
 5209500    1471.9759   -734.55971    297296.51    16.565339 
 5210000    1529.6155   -730.66456    306238.35      16.6268 
 5210500    1372.6678   -738.50745    295336.88    16.379248 
 5211000     1508.371   -736.20617    293540.56    16.841103 
 5211500    1704.3602   -734.63133    303663.73    16.451667 
 5212000    1567.9844   -734.62451    294986.23    16.603759 
 5212500    1380.6153   -740.79866    298264.99     15.95295 
 5213000    1437.9017   -761.71644    293525.01    15.243806 
 5213500    1441.3799   -768.98422    285859.06     15.13241 
 5214000     1389.732   -771.21191    280946.31    15.254056 
 5214500    1525.4163    -756.9436    298294.84    15.446984 
 5215000    1535.9173   -751.02981    317058.99    15.199102 
 5215500    1481.6575   -744.72033    325948.82    15.394902 
 5216000    1511.8373   -757.16107    314249.31    15.010889 
 5216500    1489.9942   -751.21515    305166.68    15.375201 
 5217000    1503.8519   -758.46388    297248.77    15.429251 
 5217500    1570.1194   -769.45285    274424.51    15.359086 
 5218000    1396.5286   -766.75797    286459.67    15.056436 
 5218500    1499.6602   -765.71335    289606.32    15.180227 
 5219000    1599.8841   -764.52553    296352.24    15.082313 
 5219500    1479.1278   -755.66788    306651.93    15.360794 
 5220000    1393.0457   -760.76226    304177.71    15.130715 
 5220500    1434.5408   -760.11205    301203.16    15.250532 
 5221000    1536.7738   -758.90165    305177.29    15.257713 
 5221500    1494.1119   -763.98282    298145.76    15.164172 
 5222000    1478.9678   -761.43957    291273.13    15.287948 
 5222500    1438.3301   -759.62669    295618.85    15.185409 
 5223000    1452.1692   -768.14893    289745.66    15.224259 
 5223500    1476.7408   -770.68072    285802.45    15.041583 
 5224000    1455.3942   -757.07177    294417.57    15.430388 
 5224500    1495.1786   -758.30101    300822.89    15.279569 
 5225000    1377.5669    -750.8646    310016.06    15.215764 
 5225500    1558.1489   -758.81515    309117.93    15.161151 
 5226000    1442.4352   -763.83794    289301.28    15.149481 
 5226500    1400.8457   -761.23701    283252.82    15.428541 
 5227000    1419.0169    -764.8469    293059.35    15.289111 
 5227500     1460.178   -754.75123    295318.29    15.398333 
 5228000     1446.026   -758.23629    297422.07      15.4768 
 5228500    1533.6476   -750.06241    284781.55    16.015781 
 5229000    1347.1468   -733.93686    300828.75     16.29659 
 5229500    1552.7876   -737.24387     317025.6    15.991233 
 5230000    1560.8723   -749.57905    281978.01    16.131905 
 5230500    1586.9293   -744.17508    288679.96    16.145983 
 5231000    1547.4618   -732.98136    310817.53    16.101811 
 5231500     1439.625   -735.15127    291314.37    16.744929 
 5232000    1496.4531   -727.60511    306190.56    16.771973 
 5232500    1425.0887   -737.08878    297680.33    16.326871 
 5233000    1522.0702   -732.03019    303143.95     17.01966 
 5233500    1502.5524   -740.95001    286058.31    16.848782 
 5234000    1679.7266   -731.11292    307257.44    16.697165 
 5234500    1447.1634   -739.01052    297065.26     16.53032 
 5235000    1534.2555   -732.64348    291599.95    16.909229 
 5235500    1597.6831   -730.99187     309705.3    16.776579 
 5236000    1438.5145   -727.23604     315190.2    16.774494 
 5236500    1464.7935   -725.94614    312554.71    16.738698 
 5237000    1633.9913    -739.0023    292454.18    16.546747 
 5237500    1597.5228   -739.15595     292472.5    16.688226 
 5238000    1690.1659   -732.40275    300765.32    16.852977 
 5238500    1490.3683   -735.36867    298729.97    16.276717 
 5239000    1462.4126   -747.77449    290159.09    16.121559 
 5239500    1552.7362    -744.7876    287330.91    16.282474 
 5240000    1453.6396   -721.25079    326775.03    16.507724 
 5240500    1520.9141   -729.17919    311690.29    16.598552 
 5241000    1562.4696   -740.76108    287413.12    16.498553 
 5241500    1581.3798   -738.78447    293177.36    16.638068 
 5242000    1604.2107   -726.42904    325464.99    16.558271 
 5242500    1430.0863   -735.12052    288453.57    16.565009 
 5243000    1514.7697   -736.20157    290940.28    16.961355 
 5243500    1469.6517    -734.6401     297754.6    16.619439 
 5244000    1655.5389   -734.87218    294686.81    16.684866 
 5244500    1454.5418   -738.50741    289812.89    16.568833 
 5245000    1661.4138   -735.13255    289878.72    16.768814 
 5245500    1551.1037    -731.9424    302111.31    16.787907 
 5246000    1424.7389   -736.16292    302040.75    16.403585 
 5246500    1383.3272   -735.37185    288704.86    17.023512 
 5247000     1482.926   -736.40879     295671.6     16.70432 
 5247500    1433.1732   -729.49625    311752.11     16.53561 
 5248000    1494.4673   -734.22963    304002.21    16.640311 
 5248500    1646.2784   -726.50856    320201.99    16.311816 
 5249000    1577.1668   -728.59045    300582.52    16.961677 
 5249500    1304.2088   -730.63691    300256.03    16.749333 
 5250000    1446.2585   -739.86996    291007.06    16.508738 
 5250500    1538.9698   -732.68013    301315.25    17.055656 
 5251000    1552.0103   -728.74714    311559.85    16.754174 
 5251500    1729.1867   -733.80271    309127.28    16.631676 
 5252000    1383.1045   -737.60969    304495.05    16.134096 
 5252500    1617.3714   -743.86853    287875.98    16.064523 
 5253000    1442.2841   -751.02036     270812.8    16.328508 
 5253500     1584.817   -743.20911    301790.28    16.060639 
 5254000    1458.7091   -735.77352    299812.53    16.396332 
 5254500    1560.6419   -723.40654    324374.66    16.761794 
 5255000    1576.2856   -727.32366    310361.99    16.790809 
 5255500    1497.7656   -739.16404    284215.65    16.949411 
 5256000    1559.9107   -729.93235    297608.31    16.931314 
 5256500     1552.555   -738.82749       309400    16.043983 
 5257000     1549.265    -732.3098    311457.13    16.255827 
 5257500    1442.6153   -741.53609    297147.32     16.05985 
 5258000    1401.5389   -751.29455    299228.96     15.42824 
 5258500    1444.7758   -749.24116    300254.05    15.665499 
 5259000     1483.545   -741.40187    297257.61    16.012166 
 5259500    1390.3486   -736.09552    290295.61    16.733274 
 5260000    1435.3604   -731.26229    313807.62    16.267469 
 5260500     1504.885   -741.33159    299437.37    16.132836 
 5261000    1382.0765   -738.71808    285428.08    16.657903 
 5261500    1487.6553   -736.52422    288468.07    16.524022 
 5262000    1405.0918   -722.20502    321671.69    16.885802 
 5262500    1606.4577   -733.22199    301882.02    16.615032 
 5263000    1611.6806   -736.65024    291530.54    16.755763 
 5263500    1652.3744   -735.19197    299486.54    16.791427 
 5264000    1428.6705   -739.25125    283139.35    16.947118 
 5264500     1582.546   -729.54589    307945.99    16.578991 
 5265000    1573.5827   -732.82528    304832.86    16.581322 
 5265500    1451.4544   -743.63427    273110.57    17.058242 
 5266000    1538.1962     -734.379    302117.12    16.671153 
 5266500    1595.2536   -732.90453     312968.9    16.605606 
 5267000    1526.4011    -737.8338    290555.58    16.552917 
 5267500    1417.5226   -740.30627     284757.6    17.100064 
 5268000    1501.1846   -728.74186    311209.94    16.892398 
 5268500    1550.7562   -739.50227    289306.07    16.716327 
 5269000     1448.597   -740.14018    285287.98     17.12561 
 5269500    1504.4399   -725.18122    320090.01    17.018035 
 5270000    1394.9578   -737.52741    291821.06    16.701511 
 5270500    1582.2158   -734.08296    296558.72    16.799382 
 5271000    1426.8674   -724.07851    329954.72    16.610583 
 5271500    1530.4008    -733.8273    300951.87    16.803496 
 5272000    1393.1192   -738.87505    286238.95     16.54156 
 5272500    1605.4211   -731.12522    304918.86    16.379657 
 5273000    1438.1827   -755.38834    295921.34    15.461659 
 5273500    1486.4719    -763.3654    297440.63    15.148982 
 5274000    1410.8442   -747.73693    306460.65    15.639851 
 5274500    1531.8606   -748.73648    294925.07     15.72409 
 5275000    1513.8342   -751.92041    288487.33    15.635896 
 5275500    1575.6106   -740.04583    292669.35    16.268203 
 5276000    1497.5539   -737.85771    311797.94    15.928715 
 5276500    1624.1374   -738.93456    305507.44    16.128756 
 5277000     1527.148   -733.74115     298369.3    16.549705 
 5277500    1463.6841    -729.6536    303231.07    16.617116 
 5278000    1552.5962   -732.04765    306487.25    16.827019 
 5278500    1459.7077   -730.36179     311081.7    16.540973 
 5279000     1442.857   -734.09139    306729.77    16.577356 
 5279500     1502.698    -737.9898    289220.28    16.476967 
 5280000     1445.397   -730.38367    317720.29    16.660926 
 5280500    1562.0364   -728.97917    314580.74      16.7477 
 5281000    1574.2387    -729.0099    298966.96    16.999568 
 5281500    1559.4461   -740.71335     288162.8    16.324246 
 5282000    1576.7268   -735.93137     297234.7    16.608495 
 5282500    1476.2486   -734.92299    289129.55    17.017495 
 5283000    1662.7363   -742.74601    286348.96     16.50466 
 5283500    1568.0521   -731.59389    326854.83    16.154008 
 5284000    1546.9259   -738.05816    314133.28    15.949831 
 5284500    1572.5305    -744.4322    281931.25      16.5088 
 5285000    1464.8232   -729.61756    309866.36    16.694036 
 5285500    1530.9838    -734.9977    298294.52    16.936911 
 5286000    1585.0224   -741.72051    278255.12    16.883746 
 5286500    1599.4315   -734.26365    295937.48    16.775123 
 5287000    1506.9333   -733.47206    299371.26    16.821272 
 5287500    1477.8266   -732.43766    304969.49    16.432301 
 5288000    1544.7871   -728.15888    305449.38    16.743479 
 5288500    1467.6529   -731.03898    304256.41    16.622035 
 5289000    1456.0074   -740.69633    282539.25    16.804753 
 5289500     1597.093   -738.89397    281855.38    16.985426 
 5290000    1395.1971   -733.10753    294091.47    16.987833 
 5290500    1356.1925   -741.32686    292920.53    16.479652 
 5291000    1474.0275   -731.00273    303643.87    16.749413 
 5291500    1422.1389   -735.25788    307577.56    16.368497 
 5292000    1414.0143   -735.68787     287249.7    16.959133 
 5292500    1497.2946   -736.86958    289677.49    16.918016 
 5293000    1589.7067   -726.94388    317871.65    16.627292 
 5293500    1465.3112   -736.14668    293639.92    16.606128 
 5294000     1504.038   -737.43299    288354.52    16.874767 
 5294500    1568.4749   -731.54167    311811.25    16.545372 
 5295000    1358.7153   -730.54483    306635.97    16.724846 
 5295500    1421.8822   -735.24549    285405.82    16.822332 
 5296000    1542.7415   -733.54409    303686.15    16.568891 
 5296500    1440.7214   -735.84684     298161.6    16.616289 
 5297000    1607.3996   -728.78118    309251.21    17.095579 
 5297500    1608.8977   -740.93597    293484.03    16.941702 
 5298000    1564.8372   -739.07902    294202.88    16.429655 
 5298500    1439.8969   -728.65629    321367.14    16.238994 
 5299000     1519.775   -736.98237    294907.14    16.874949 
 5299500    1466.0276   -738.11191    292713.61    16.742553 
 5300000    1622.6441   -730.92744    313109.26    16.384819 
 5300500    1565.0137   -727.78009    314483.52    16.800204 
 5301000    1475.5255   -733.63596    303910.51    16.476421 
 5301500    1630.2388   -741.65335     304321.9    15.901893 
 5302000    1541.9232    -753.3735     292019.2    15.671775 
 5302500    1439.1083   -756.07383    283552.29    15.825221 
 5303000    1549.7599   -737.56036    301532.67    16.158843 
 5303500    1664.3694   -736.02457    310095.81    16.185168 
 5304000    1574.1704   -744.12452    287848.12     16.13639 
 5304500    1545.5059   -731.59802    307717.14    16.210251 
 5305000    1516.6754   -739.66366    298904.16    16.149082 
 5305500    1421.1605   -742.08038    296665.43    16.189543 
 5306000     1525.846   -746.87324    281486.34      16.0552 
 5306500    1408.8216   -736.00238    292873.53    16.553639 
 5307000    1474.1797   -734.79588    301206.77    16.505202 
 5307500    1669.7408   -742.02348    286297.17    16.919308 
 5308000    1465.7529   -742.26122    281794.54    16.637272 
 5308500    1518.9476   -743.28278     296100.2    16.098397 
 5309000    1543.0098   -745.72823    302412.16    15.690137 
 5309500    1667.2182   -757.07128    313283.41    15.088833 
 5310000    1614.3244   -763.14013    305268.07    14.990522 
 5310500    1462.9399   -756.56714    304177.77    15.293261 
 5311000    1450.3262   -766.43165    289359.58    15.225029 
 5311500    1519.6868   -767.01165    285387.12    15.248402 
 5312000    1472.7496   -761.07712     290745.4    15.485798 
 5312500    1473.5844   -760.56853    300619.39    15.148695 
 5313000    1532.1274   -759.62103    308824.59    14.985293 
 5313500    1513.1985   -765.44808    305339.33    15.014972 
 5314000      1651.26   -760.99691    304062.58    15.179033 
 5314500    1569.0361   -754.33007    324056.41    15.169689 
 5315000    1570.4102   -748.73571    324505.68    15.241119 
 5315500     1427.669   -757.11638    311496.96    15.191328 
 5316000    1650.8591   -759.94622     296073.5     15.36342 
 5316500    1598.1035   -765.45296    288544.92    15.388617 
 5317000    1397.2033   -766.62391    283822.82    15.134106 
 5317500    1531.1523   -760.83653    282289.87     15.51817 
 5318000    1485.9877   -750.49351    290925.59    15.691983 
 5318500     1341.917   -741.88333    310717.06    15.622015 
 5319000    1431.1637   -734.57962    337568.66    15.540307 
 5319500    1582.9373   -745.54805    312038.33    15.442409 
 5320000    1501.2997   -750.49596    305565.32    15.520497 
 5320500    1474.9667   -756.65046    285099.72    15.688296 
 5321000    1440.4776   -758.48299     268066.9    15.955497 
 5321500    1515.2601   -740.50295    304760.05    16.035217 
 5322000    1575.7171   -737.79544    306551.08     16.03415 
 5322500    1468.7294    -733.8305    305326.68    16.594609 
 5323000    1500.8967   -729.91701    306656.65    16.822984 
 5323500    1393.1954   -737.57457    297560.56     16.39125 
 5324000    1496.0545   -740.77312    300919.61    16.173877 
 5324500    1466.9536   -737.07527    306837.52    16.278662 
 5325000    1480.2048   -730.64675     297478.4    16.647904 
 5325500    1650.4039   -723.48069    317019.34    16.762939 
 5326000    1367.2994   -735.60832    293251.91    16.713953 
 5326500    1458.6049   -729.84286    305373.78    16.806647 
 5327000    1464.0196   -727.64526    313738.12    16.635742 
 5327500    1501.8612   -728.90014    314300.44    16.715847 
 5328000     1396.599   -736.78764    298985.34     16.63201 
 5328500    1477.1481   -733.67706    299855.94    16.902344 
 5329000    1553.3676   -734.38213    300865.75    16.450065 
 5329500    1491.7435   -730.74088    303201.54    16.820613 
 5330000    1506.1175   -736.89726    296551.59    16.679235 
 5330500    1619.5157   -744.04457    291319.03    16.040513 
 5331000    1626.6164   -749.93758    296255.27    15.584832 
 5331500    1571.7983   -750.77196     289817.3    15.887558 
 5332000    1501.9769   -757.01702    287120.76    15.579221 
 5332500    1558.0222   -752.63495    304101.13    15.468399 
 5333000    1390.5408   -740.49329    309899.32    15.828215 
 5333500    1485.5268   -753.15692     305400.3    15.482641 
 5334000    1522.8301   -761.72502    301939.75    15.222959 
 5334500    1493.3486    -747.3265    303143.48    15.728799 
 5335000    1409.5697   -750.52728    295661.64     15.68358 
 5335500    1518.9397   -751.68238    304236.39    15.531428 
 5336000     1472.143   -760.05391    310709.47    14.948838 
 5336500    1488.1054   -758.47456    308303.53    15.276902 
 5337000    1509.8489   -759.63408    303421.84    14.965974 
 5337500    1584.7221   -759.55428    287926.99    15.425365 
 5338000    1343.6774   -764.57225    287284.88    15.044814 
 5338500    1445.9358   -764.63988    284534.12    15.408631 
 5339000    1643.0096   -769.87556    291910.47    15.053807 
 5339500    1537.8497   -756.06975    306839.34    15.207635 
 5340000    1484.5799   -763.78677     300296.2    15.004188 
 5340500    1503.8837    -758.8294    292826.81    15.420091 
 5341000    1361.6153   -752.50236    292551.91    15.561719 
 5341500    1509.8053   -768.23597    289036.43    15.075747 
 5342000    1648.1326   -753.27329    304666.55    15.428239 
 5342500    1477.2467   -756.61757    313868.45    15.248068 
 5343000     1551.302   -752.72917    330476.71    15.004679 
 5343500    1520.8071   -757.09502     311719.9    15.163418 
 5344000    1536.8164    -753.8806    301309.29    15.511166 
 5344500    1453.1606   -741.69634    297154.63    16.080788 
 5345000    1477.1435    -734.4977    294337.11    16.568353 
 5345500    1694.5309    -730.7051    307242.59    16.848767 
 5346000    1404.1823   -736.97178    286356.39    16.833126 
 5346500    1522.7603   -735.39502    303751.34    16.502784 
 5347000    1536.1042   -725.97142    323181.35    16.483375 
 5347500    1497.6189   -739.94364    286261.44    16.871974 
 5348000    1472.0116   -730.64901    297145.27    16.761831 
 5348500    1512.7805   -725.12454    318149.82    16.626975 
 5349000    1534.8038   -732.43024    301972.56    16.740944 
 5349500    1421.9952   -730.25049    301163.87     16.90442 
 5350000    1562.0413   -729.90852    307542.59    16.743971 
 5350500    1430.2488   -744.87559    280238.08    16.763427 
 5351000    1589.7523   -731.65907    305131.28    16.637103 
 5351500    1468.9991   -735.51525    305485.17    16.569375 
 5352000    1470.4171   -743.66904    270146.41    16.961862 
 5352500    1386.3595   -730.74193    308162.52    16.733895 
 5353000    1553.9418   -731.22454    306216.05    16.892344 
 5353500    1483.6057     -729.142    319455.37    16.445797 
 5354000    1507.7169   -738.54428    291242.69    16.740405 
 5354500    1434.5338   -735.51871     307477.2    16.294464 
 5355000    1419.5853   -736.03685    313465.15    16.053552 
 5355500    1513.4727    -745.6532    285754.21    16.368826 
 5356000    1524.9168   -741.14597    287760.68     16.46474 
 5356500    1525.6963    -732.1866    304264.93    16.978973 
 5357000    1538.7633   -740.80687    286986.23    16.690711 
 5357500    1669.6924   -730.46316     306621.5    16.878699 
 5358000    1498.2195   -725.62633    320870.58    16.272741 
 5358500    1505.4291   -739.19096    289982.34    16.882684 
 5359000    1372.5028   -727.68251    313813.15    16.809553 
 5359500    1597.1601   -737.75206    292084.44    16.901051 
 5360000    1524.1513   -737.00601    286556.76    17.008225 
 5360500    1408.5935   -729.35587    308728.28    16.894657 
 5361000    1640.5759   -731.00656    310497.48     16.61294 
 5361500    1597.2443   -734.77623    299239.59    16.719038 
 5362000    1417.8425   -732.17906    298887.02    16.882708 
 5362500    1426.3036   -745.89981    271888.93    16.721991 
 5363000    1361.9963   -730.64246    318037.67     16.39515 
 5363500    1512.7323   -736.52842    302040.55     16.48292 
 5364000     1437.942   -731.97386    298159.65    16.828478 
 5364500    1593.4214   -726.11238    310268.35    16.814586 
 5365000    1548.1118   -730.32987    302320.14    16.714058 
 5365500     1510.406   -733.59254    299542.72    16.613717 
 5366000    1514.6826   -726.81099    319042.93    16.973604 
 5366500    1477.9322   -733.65079    294319.88    16.471294 
 5367000    1530.4543   -740.03507     296566.4     16.25574 
 5367500    1514.5015   -751.66683    302168.04    15.552541 
 5368000      1435.03   -754.72905    294233.27    15.547593 
 5368500     1590.416   -763.01514     296970.8    15.037331 
 5369000    1389.6293   -755.44446    305065.46    15.317524 
 5369500    1597.8933   -757.10449     310969.7    15.139594 
 5370000      1419.16   -745.04371    306076.16    15.674561 
 5370500    1428.4438   -755.22279    291792.01    15.522383 
 5371000    1338.5225   -768.80806    277256.66    15.279808 
 5371500    1396.3161   -765.75618    283541.17     15.35745 
 5372000    1398.4161   -763.30036    286312.47    15.320555 
 5372500    1607.0646   -760.04268    295830.89    15.355523 
 5373000     1593.033   -755.08865     312118.6    15.221165 
 5373500    1521.8608   -750.33614    311700.28      15.2296 
 5374000    1568.4895    -759.7134    300667.35    15.252231 
 5374500    1391.9678   -754.97346    292048.59    15.414916 
 5375000    1478.0309   -762.97176    292215.46    15.216117 
 5375500    1382.5002   -762.89672     296628.5    15.277963 
 5376000    1477.7954   -756.97679    303050.47    15.308515 
 5376500     1498.159   -752.16317    317429.08    15.053932 
 5377000    1494.8348   -756.85564    308875.28    15.005049 
 5377500    1409.9676   -761.46253    296002.93    15.215882 
 5378000    1526.9524    -763.5138    280005.19    15.430178 
 5378500    1524.4326   -760.75618    290651.42    15.072927 
 5379000    1622.7177   -763.10468    299465.68    15.096186 
 5379500    1621.6901   -740.59586    313887.36    15.770544 
 5380000    1599.7645   -742.94554    299448.42    16.140889 
 5380500    1389.7356   -735.53817     302222.4    16.136221 
 5381000    1435.7723   -747.61331    293463.49    15.685797 
 5381500    1400.9131   -747.74862    291210.16    15.782895 
 5382000    1654.1799   -753.39441    304146.21    15.508046 
 5382500    1645.9157   -739.86543    309017.86    15.928635 
 5383000    1688.1109   -733.40262    302839.71    16.529639 
 5383500     1532.649    -736.4212    304280.32    16.560835 
 5384000    1682.4275   -736.45671    301174.37    16.427347 
 5384500    1537.0776   -726.24102    308925.65    17.028631 
 5385000    1517.1144   -734.42759    303465.84    16.605407 
 5385500    1486.4889   -736.07321    289701.76    16.662709 
 5386000    1622.0058   -737.29965    294329.31    16.704965 
 5386500    1516.2257   -735.74204    303758.93    16.279373 
 5387000    1441.7458   -748.79083    297468.04    15.753642 
 5387500    1595.9227   -757.87275     281118.2    15.653891 
 5388000    1502.2841   -749.90159    281549.25    16.015274 
 5388500    1408.3338   -732.67518       327049     16.02249 
 5389000    1540.3655   -727.69526    324686.08    16.143108 
 5389500    1445.5762   -743.06037    299192.87     16.08908 
 5390000     1657.707   -761.62907    272605.73    15.679426 
 5390500    1473.8763   -759.99885    276649.44    15.671699 
 5391000    1495.0118   -761.08131    298207.61    15.158423 
 5391500    1521.0246   -759.08126     312086.1    15.074805 
 5392000    1648.3984   -754.54019    317451.47    15.138909 
 5392500    1419.5469   -747.08173    302029.88      15.8367 
 5393000    1634.3727   -753.52397    297164.32    15.601268 
 5393500    1583.3377   -744.32366    298067.06    16.158658 
 5394000    1502.6319   -735.26032    299893.86    16.570148 
 5394500    1475.1582   -737.86068    301642.89    16.044925 
 5395000    1574.4244   -747.78289    309387.93    15.612158 
 5395500    1529.4014   -741.63281    301212.77    15.918255 
 5396000    1478.9483   -741.49889    288167.59    16.485811 
 5396500    1578.4405   -737.41672    302132.48    16.520189 
 5397000    1590.8139   -728.90826     332491.4    16.216089 
 5397500     1634.361    -745.8874     289428.6    16.143185 
 5398000     1485.979   -736.92498    294849.82    16.630889 
 5398500    1536.2748   -733.51872    302392.89    16.841746 
 5399000    1554.1946   -740.54196    284358.47    16.538203 
 5399500    1484.5683   -735.83349    299961.42    16.620751 
 5400000    1591.3448   -736.91998     310402.4    16.001927 
 5400500    1536.6021   -739.47409    294937.69    16.429611 
 5401000    1568.3069   -733.00573    298520.46    17.006386 
 5401500    1518.0355    -730.4268    304481.37    16.870443 
 5402000    1582.7981   -729.36207    305657.28    16.743957 
 5402500    1504.9034   -730.96868    299046.25    16.634681 
 5403000    1539.4407   -738.39766    295512.21    16.432669 
 5403500    1580.6315   -728.41356    315365.23    16.614143 
 5404000    1502.2778   -729.62419    304174.56    16.853309 
 5404500    1514.3329   -735.66715    283595.25    16.800239 
 5405000    1494.8548   -732.21432    299500.91    16.636017 
 5405500    1581.6314   -727.72541    309199.01    16.801685 
 5406000    1486.9986   -735.71053    302800.98    16.645175 
 5406500    1691.3959   -734.94167     303159.8    16.697278 
 5407000    1447.6039   -732.19259    314202.35    16.157739 
 5407500    1537.1668   -750.17835    270157.17    16.256473 
 5408000    1589.7538    -739.1441    294801.95    16.280012 
 5408500    1526.4419   -748.63148     299158.9    15.841951 
 5409000     1584.496   -756.07388    293601.98    15.467514 
 5409500    1457.7877    -763.3147    297888.53    15.017824 
 5410000    1367.8536   -753.50141    296215.77     15.49506 
 5410500    1520.2078   -748.50096    299815.99    15.634116 
 5411000    1566.8629   -741.90719    316379.15    15.744352 
 5411500    1459.4262   -762.65785    301482.96    15.065216 
 5412000    1497.8362   -758.80042    302573.51    15.147328 
 5412500    1488.9995   -747.39825    303256.78    15.782071 
 5413000    1542.0947   -736.09553    303119.27    16.280702 
 5413500    1625.7553   -736.65356     286623.7    16.762381 
 5414000     1392.479    -736.9817    294750.88    16.560561 
 5414500    1450.2357   -731.94881    307623.91    16.403773 
 5415000    1665.7834   -732.25525    310588.64    16.369562 
 5415500     1415.749    -736.7023    293691.66    16.587672 
 5416000    1600.6696   -731.92013    303838.21    16.634222 
 5416500    1690.2191   -731.22878    319099.95    16.379243 
 5417000    1373.3598   -744.10017    282681.78    16.439919 
 5417500    1468.9714   -750.27068    282158.57     16.10536 
 5418000    1722.4991   -744.17087    289297.21    16.380011 
 5418500    1404.8856   -730.07108    310487.38    16.624354 
 5419000    1414.5808   -730.60486    306396.28    16.786959 
 5419500    1541.9643   -735.86656    301808.94    16.708769 
 5420000    1474.9733   -735.26481    296507.43    16.777339 
 5420500    1641.3914   -729.43829    311354.67    17.193677 
 5421000    1559.2256   -733.14404    300998.64    16.585178 
 5421500    1596.2725   -730.39099    313381.96    16.754529 
 5422000    1506.2517   -736.08169    302934.96    16.575035 
 5422500    1491.5704   -734.86361    290400.41    16.958187 
 5423000    1522.1819   -735.64683    293256.38    16.749826 
 5423500    1487.0187   -732.45339    296989.43    16.835808 
 5424000    1400.8728   -732.70036    298633.92    16.956321 
 5424500    1461.8197   -734.70758     296612.5    16.755924 
 5425000    1443.8488   -730.29955    305578.68    16.574978 
 5425500    1508.7548   -736.98901    285213.27    17.053219 
 5426000    1498.4931    -731.2287    298786.63    16.625457 
 5426500    1468.3135   -728.56485    315300.92    16.526927 
 5427000    1655.7303   -744.53059    278269.47    16.532274 
 5427500    1454.4317   -745.29564    290353.06    15.979293 
 5428000    1424.0789   -733.70624    310722.87    16.115453 
 5428500    1488.5859   -733.02464    311348.78    16.257647 
 5429000    1511.7195   -734.48905    284491.44       17.044 
 5429500    1435.2609   -738.16049     287367.9    16.821195 
 5430000    1429.7846   -731.03999    306585.09     16.80719 
 5430500     1523.252   -731.57181    318166.38     16.16536 
 5431000    1442.6765   -738.03963    306730.41    16.190136 
 5431500    1663.9946   -734.18777    299591.43    16.858477 
 5432000    1375.1836   -735.94647    290942.99    16.973848 
 5432500    1544.6452   -733.56419    303308.39    16.715039 
 5433000     1515.795   -739.42411    298705.21    16.260853 
 5433500    1435.7823   -747.50906    279649.93    16.103809 
 5434000    1503.5274   -746.76024    281670.02    16.428199 
 5434500    1503.4128   -732.56429    303234.25    16.476079 
 5435000    1502.9418   -735.84211    305772.11    16.242267 
 5435500    1468.5324   -742.79528    297806.24    16.045029 
 5436000    1473.4288   -744.42784    281765.69    16.519535 
 5436500    1554.2118   -741.30752    289289.37    16.467286 
 5437000    1408.9797   -735.86055    307051.69    15.939272 
 5437500    1454.6927   -733.71737    304182.21    16.442691 
 5438000    1441.8973    -733.6729    301857.51    16.822326 
 5438500    1458.3569   -724.04417    316338.71    16.728159 
 5439000    1499.9632   -742.14102    286431.27    16.521846 
 5439500    1418.4033   -729.13928    317691.87    16.486716 
 5440000    1518.3102   -735.84268    293851.45    16.757863 
 5440500    1429.2062   -741.53467    294484.63    16.079478 
 5441000    1518.7678   -743.27911    309012.92    15.704097 
 5441500    1581.5989   -747.27931    295158.71    15.875877 
 5442000    1472.7098   -763.68621    278539.09    15.537429 
 5442500    1491.4681   -770.56544    282397.23      15.1658 
 5443000    1446.8742   -766.31758    281655.68    15.403783 
 5443500     1514.796   -771.17514    284757.16    15.088642 
 5444000    1552.7653    -766.1525    290008.04     15.04755 
 5444500    1377.6276   -755.27927    313375.12    15.237227 
 5445000    1463.5834   -753.83246    305901.94    15.275235 
 5445500    1548.0695   -753.37185    313749.76     15.05233 
 5446000    1510.6144   -749.31456    319962.25    15.032038 
 5446500    1532.3524   -754.07904    307046.55    15.294251 
 5447000    1505.1051   -759.60199    302512.63    15.271721 
 5447500    1423.1512   -764.05344    288979.78    15.057155 
 5448000    1640.2267   -763.70058     290470.2    15.345119 
 5448500    1538.7776   -767.15648    282938.66    15.198549 
 5449000    1542.6834   -761.27467    289643.95    15.459375 
 5449500    1503.5319   -753.12342    296043.59    15.646294 
 5450000    1456.6243   -756.48073    301182.07    15.224552 
 5450500    1477.5135   -738.01582    314993.59    15.861037 
 5451000    1460.2057   -741.48422    292999.41     16.20688 
 5451500    1456.2721   -733.01169    307598.12    16.508964 
 5452000    1558.7574   -728.49551    303755.93    16.744751 
 5452500    1407.2654   -731.21813    295506.39    16.948384 
 5453000    1548.8032   -738.17519    285101.49    16.913345 
 5453500    1486.4359   -729.87853    311159.32    16.748059 
 5454000    1547.2853   -726.72942    311262.06    16.937304 
 5454500    1427.9218    -738.0591    295398.66    16.720685 
 5455000    1621.9209   -732.63014    305407.82    16.572434 
 5455500    1416.7001    -735.6298    296573.18     16.64357 
 5456000    1434.0038   -740.08673    280752.32    17.030812 
 5456500    1572.6153   -728.94402    314497.77    16.823989 
 5457000    1457.2035   -729.40416    310822.05    16.779101 
 5457500    1379.4811   -738.19837    280267.25    16.821498 
 5458000    1445.7867   -742.31896     277231.1    16.935107 
 5458500    1461.4819   -734.55249     292903.2    16.821362 
 5459000    1520.9984   -733.21638    304604.45    16.593294 
 5459500    1394.1416   -737.20775    294504.11    16.229289 
 5460000    1537.0312   -751.68209    300457.02    15.574866 
 5460500    1456.4657   -758.37347    309981.03    15.018987 
 5461000     1482.157   -751.01346    312570.27    15.170926 
 5461500    1592.6057   -758.48293    300341.24    15.318549 
 5462000      1527.49   -759.29008    294197.47    15.455076 
 5462500     1410.739   -768.18064    281731.89     15.07528 
 5463000    1660.5341   -757.18239    294031.59    15.466976 
 5463500     1474.503   -758.91748    295635.07    15.329269 
 5464000    1560.8709    -752.3198    300418.79    15.418054 
 5464500    1472.1078   -743.52541    299907.53    15.953419 
 5465000    1448.6215   -736.22638     300167.8     16.58842 
 5465500    1428.6488   -737.15669    291821.06    16.631953 
 5466000    1531.7637   -741.23578    296523.79    16.097695 
 5466500    1551.5975   -732.41233     315576.1    16.159327 
 5467000     1537.681   -738.13809    294486.69    16.353759 
 5467500    1461.0542   -735.64681    294182.51     16.64271 
 5468000    1463.8712   -731.68459    303641.18     16.80441 
 5468500     1515.722   -732.28155    304634.52     16.64198 
 5469000    1492.8339   -738.37295    304047.23    16.102593 
 5469500    1517.2705   -740.96579    273883.38    16.738934 
 5470000    1511.5042   -731.12225    305103.88    16.827246 
 5470500    1535.8842   -726.14811    317664.29    16.767678 
 5471000    1424.7813   -733.21007    298508.49    16.825016 
 5471500    1465.7022   -733.76538    301240.27    16.635291 
 5472000    1697.7584   -727.54758    314446.11    16.698563 
 5472500    1542.9747   -733.64636     305442.1     16.65499 
 5473000    1557.2521   -732.24688    299139.91    16.875651 
 5473500    1480.4203   -731.59629    303735.05    16.609182 
 5474000    1537.6639   -735.24979    293503.68    16.788396 
 5474500    1380.0574   -735.65474    304648.88     16.37012 
 5475000    1481.2151   -735.88392    296743.93    17.023798 
 5475500    1470.1651   -736.68514    293294.64    16.696347 
 5476000    1571.8678   -723.06486    328487.08    16.925627 
 5476500      1554.69   -730.63649    309193.99    16.506993 
 5477000    1365.4981   -735.27423    296411.47    16.840341 
 5477500     1513.674   -740.73171    287226.87    16.685936 
 5478000    1505.1662    -737.8994    292411.25    16.686988 
 5478500     1495.392    -726.5596    312688.47    16.713668 
 5479000    1552.1448   -737.15437    292971.48    16.344304 
 5479500    1495.5882   -732.35509    296671.21    16.857825 
 5480000    1418.9612   -728.38585    310141.29    16.629083 
 5480500    1503.4847   -735.54811    303019.15    16.190978 
 5481000    1589.4202   -734.31231     295892.4    16.862855 
 5481500    1473.4652   -733.72955    301039.31    16.766835 
 5482000    1377.8439   -736.27427    302557.95    16.623704 
 5482500    1491.1523   -732.44325    300721.82    16.454492 
 5483000    1523.5957     -733.075    303991.67    16.948665 
 5483500     1335.748   -734.45117    303621.05    16.499044 
 5484000    1497.8111     -734.745     297109.3    16.731346 
 5484500    1569.3281   -729.14752    323968.43    16.989522 
 5485000    1340.7977   -724.86513    308902.15    16.771979 
 5485500    1377.3377   -738.10258    288208.62    16.736642 
 5486000    1386.4286    -736.1676    295521.57    16.625847 
 5486500    1567.7491   -728.15561    325719.05    16.428306 
 5487000    1678.6786   -735.18854    299285.86    16.701806 
 5487500     1588.054   -737.89813    296130.78    16.581741 
 5488000    1592.3214   -730.09012    305506.13    16.497182 
 5488500    1409.1468   -737.73145    285771.99    16.719459 
 5489000    1505.0812   -736.10445    305699.37    16.488409 
 5489500    1467.8166   -735.41204    307590.86    16.364927 
 5490000    1517.7308   -732.94454    301335.38    16.969314 
 5490500     1517.912   -738.69345    301863.47    16.207393 
 5491000    1472.6826   -741.17207    305351.03    15.930803 
 5491500    1518.9647   -758.90991    299828.55    15.343672 
 5492000    1670.6372   -766.61762    295940.48    15.082404 
 5492500    1478.7806   -760.60861    278975.78     15.10093 
 5493000     1491.123   -751.00259    299687.28    15.584809 
 5493500    1603.6504   -743.37153     306028.5    15.786369 
 5494000    1642.0032   -745.96203    311873.75    15.488049 
 5494500    1316.6506   -750.37527    285871.44    16.083893 
 5495000    1723.9183   -738.93652     291110.8    16.376851 
 5495500    1454.3635   -738.31346    293432.77    16.712729 
 5496000    1548.3611   -730.72841    310317.72    16.334396 
 5496500    1581.8588   -731.69706     322276.9    16.125718 
 5497000    1611.0347   -741.47622    296799.86    16.160016 
 5497500    1540.4558   -743.08868    291046.85    16.112908 
 5498000    1489.0938   -729.43978    310462.01    16.615435 
 5498500    1551.9804    -729.2115    313899.32    16.721169 
 5499000     1451.544   -733.19157    299812.06    16.659852 
 5499500    1541.5423    -739.9258    292374.57    16.394733 
 5500000    1547.9487   -731.20157    315395.19    16.284616 
 5500500    1517.8453    -733.2591    300712.91    16.858094 
 5501000    1517.1094   -735.34405     286824.8    16.927725 
 5501500    1445.2346   -730.80612    304402.07    16.827363 
 5502000    1569.1379   -728.51208    307455.17    16.611888 
 5502500    1486.7491   -743.54809    278808.98    16.459284 
 5503000     1585.249   -744.36978     296760.1    16.224059 
 5503500    1427.4986   -730.06255    317347.89    16.197706 
 5504000    1483.5005   -737.92196    290753.62    16.492555 
 5504500    1475.8115   -738.78548    288598.84    16.872278 
 5505000    1488.9235   -733.26787    306191.92    16.509941 
 5505500    1477.1195   -740.50724    290403.27    16.864639 
 5506000    1543.2873   -729.12129    315544.29    16.375051 
 5506500     1502.947   -734.67148    309890.19     16.11767 
 5507000    1538.7732   -736.21912    305831.04    16.178338 
 5507500    1370.1619   -742.65012    297771.12    16.055185 
 5508000    1600.4416    -739.0905    285470.57    16.672112 
 5508500    1540.5307   -734.44343    307446.18    16.540961 
 5509000    1470.5409   -732.29398    300277.86    16.890542 
 5509500    1547.7234   -736.91764    298968.37    16.534844 
 5510000    1484.2394   -726.63046    317175.04    16.716381 
 5510500    1335.5723   -737.58883    285445.51    16.879807 
 5511000    1374.0499   -732.33974    305044.91    16.916882 
 5511500    1446.7332   -733.97109    302528.05    16.638959 
 5512000    1432.5104    -732.0994    303146.25    16.778069 
 5512500    1535.5668   -727.70288    315629.58    16.640856 
 5513000    1583.2655   -736.50761    301636.72    16.435488 
 5513500    1507.1365    -740.5606    295199.99    16.177933 
 5514000    1471.9918    -737.7319    310115.22     16.11204 
 5514500    1473.2744   -726.04865    312716.44    16.629165 
 5515000    1506.4661    -731.0556    299867.94     16.66925 
 5515500    1495.6514   -721.67664     325478.8    16.627859 
 5516000    1489.6601   -736.83175    293799.99    16.617968 
 5516500     1478.785    -735.8957    294477.39    16.576868 
 5517000    1426.1197   -737.74818     288052.5    16.804462 
 5517500    1360.2676   -732.65967    302368.57    16.494051 
 5518000    1475.9183   -734.08007    313816.64    16.151194 
 5518500    1527.4084   -742.52286    284866.29    16.391829 
 5519000    1407.6607    -733.4575    293273.06    16.660111 
 5519500    1485.0696   -731.27534     305858.8    16.419422 
 5520000      1543.67   -736.59276    291195.07    17.008702 
 5520500    1446.5216    -741.4782    299447.76    16.169846 
 5521000    1685.9704   -747.40786    295250.37    15.888301 
 5521500    1447.7612   -748.22507    305729.59    15.394014 
 5522000    1486.7007   -758.10974    307303.62    14.951701 
 5522500    1395.4283   -758.64399    296664.14    15.343221 
 5523000    1594.1085     -762.432    285404.54    15.111535 
 5523500    1479.9934   -755.46466    301898.09    15.257075 
 5524000    1563.1058   -755.93866    312995.77    15.286683 
 5524500    1511.6778   -747.43131    323850.76    15.218736 
 5525000    1661.0532   -756.26256    311041.69    15.141632 
 5525500    1385.0232   -755.81238    305931.52    15.161123 
 5526000    1562.5935   -764.04426    289267.04    15.142603 
 5526500    1539.3783    -752.5282    296350.48    15.543335 
 5527000    1711.5078   -748.54037    303725.43    15.566447 
 5527500    1458.6626   -739.07466    323366.68    15.572388 
 5528000    1561.4691   -756.42618    302429.73    15.187073 
 5528500    1423.7084    -769.4579    287422.31    15.147728 
 5529000    1440.8845   -768.30394    287647.51    15.108234 
 5529500    1539.4809   -767.99902     286861.2    15.138201 
 5530000     1472.986   -768.31911    277729.61    15.441942 
 5530500    1401.7886    -765.1761    296136.48    15.069504 
 5531000     1486.277   -761.01165    305405.56    15.133849 
 5531500     1575.147   -758.08988    312929.89    15.101255 
 5532000    1589.8974   -754.63026    321090.77    15.031223 
 5532500    1551.1858   -757.39494    308794.91    15.209215 
 5533000    1462.3381   -756.28887    305514.85    15.311111 
 5533500    1497.6609   -764.30854    305933.89     14.96782 
 5534000    1405.0461   -753.43427    305484.23    15.348968 
 5534500     1551.521   -756.27033    317731.64    14.962916 
 5535000    1633.0548   -753.48034    316343.62    15.291952 
 5535500    1457.9412   -757.40521    300452.91    15.256491 
 5536000    1472.3452   -766.22178    283155.75    15.298148 
 5536500    1523.1018   -760.96223    276013.82     15.63951 
 5537000    1534.8334   -755.26265       291330    15.618761 
 5537500    1489.1964   -744.75536    312442.91    15.582062 
 5538000    1565.7737   -740.30361    322047.23    15.556107 
 5538500    1525.5431   -744.17898    307463.71    15.677915 
 5539000    1427.6512   -742.91686    299831.32    16.064043 
 5539500    1617.7757   -735.89974    301122.09      16.5091 
 5540000    1505.3161   -733.33376    300799.25    16.709956 
 5540500    1686.1504   -735.07181    301743.64    16.792043 
 5541000    1468.2254   -739.02085    289387.52    16.440095 
 5541500    1506.2152    -731.5512    298822.16    16.906828 
 5542000    1452.0441    -731.1989    307328.53    16.690231 
 5542500     1478.968    -747.1168    275745.11    16.387146 
 5543000    1390.6101   -741.05691    300063.44    15.979094 
 5543500    1441.8686   -737.95745    304437.95    16.103924 
 5544000    1489.3314   -736.80568    301664.25    16.127893 
 5544500    1576.8581   -734.11613    302457.99    16.398606 
 5545000    1546.4751   -743.59649    279442.65     16.83743 
 5545500    1570.9188   -734.45841    307506.84    16.211326 
 5546000    1416.1116   -734.93753       312645    16.050818 
 5546500    1466.4818   -742.45831    287886.64    16.215021 
 5547000    1429.9384   -745.99048    281010.54    16.368233 
 5547500    1587.4341   -733.35642     307549.8    16.099886 
 5548000    1390.5617    -737.5537    300740.89    16.037501 
 5548500    1513.8494   -742.41931    294371.98    16.164699 
 5549000    1556.4966   -755.09811    281279.62     15.80978 
 5549500    1503.7256   -737.84398    314067.76    15.791267 
 5550000    1620.1009    -735.7475    313457.19    15.903515 
 5550500    1534.0931   -737.71527    295078.96    16.531596 
 5551000    1292.1922   -737.64537    290319.51     16.38425 
 5551500    1467.7476   -748.50075    302672.41    15.760899 
 5552000     1454.077   -738.97357    308217.24    15.767551 
 5552500    1493.3871   -759.50279    294593.96    15.398832 
 5553000    1596.8803   -762.85304    296615.38    15.091136 
 5553500    1443.7047   -766.49137    286477.72    15.045407 
 5554000    1489.9946   -767.19306    278687.09     15.33057 
 5554500    1434.5798   -766.96404    296465.64    15.051325 
 5555000    1463.6764   -759.02464    307912.55    15.182168 
 5555500    1543.2045   -748.11576    300105.68    15.621242 
 5556000    1363.1059   -744.96817    295343.11    16.006777 
 5556500    1440.9376   -734.40187    295200.39    16.735463 
 5557000    1634.3838   -741.52919    291708.41    16.363698 
 5557500    1517.7732   -733.13277    316819.81    16.109164 
 5558000    1646.2772   -744.59817    276061.98    16.609993 
 5558500    1451.0977   -731.73644    301283.62    16.541173 
 5559000    1413.0847   -738.90557    294841.85    16.483585 
 5559500    1594.6377   -737.64104    292587.71    16.677697 
 5560000    1453.5723   -729.64326    307665.43    17.068624 
 5560500    1654.3822   -726.60047    312415.71    16.669693 
 5561000    1487.6632    -732.2961    297958.49     16.68485 
 5561500     1612.241   -730.75676    314663.47    16.795423 
 5562000    1421.8903   -735.71622    299791.07    16.452452 
 5562500    1598.7407   -736.01386    299933.49    16.420741 
 5563000    1290.0301   -734.78724    294444.71    16.806751 
 5563500    1617.4984   -730.35056    304131.34    16.818914 
 5564000    1539.7825   -729.70168    317165.34    16.408931 
 5564500    1442.5975   -735.00737    288865.75    16.628199 
 5565000    1588.3219   -739.64569    283821.76    16.685905 
 5565500    1480.6126   -728.99234    312726.26    16.540571 
 5566000    1549.9404   -736.90857    296574.29    16.374647 
 5566500     1450.691   -735.25623    297030.59    16.775217 
 5567000    1425.2194   -725.43522    306090.41    16.837216 
 5567500    1373.1641   -739.41061    283232.68    16.646317 
 5568000    1398.0095   -728.57459    307356.66    16.827979 
 5568500    1522.4042   -725.47665    317261.82    16.729792 
 5569000    1645.9006   -740.47601    285522.21    16.606766 
 5569500    1587.6297   -737.83089    297170.27    16.509683 
 5570000    1572.5048   -727.32521    316642.63    16.557868 
 5570500    1626.4687   -735.03408     293681.7    16.728078 
 5571000    1470.8933    -744.0666    277602.78    16.749412 
 5571500    1485.6653   -727.76277    307421.99    16.833115 
 5572000    1634.7306   -727.62684    321200.22    16.501851 
 5572500    1424.0018   -736.14075     288718.3    16.738953 
 5573000    1508.1356   -739.85906    285207.25    16.724358 
 5573500     1611.057   -733.55331    306980.07    17.122948 
 5574000    1492.8287   -730.68834     302186.3    16.832082 
 5574500    1649.3773   -736.84067    292452.69    16.897318 
 5575000    1641.1576   -736.16339     302789.3    16.839726 
 5575500     1518.453   -721.88491     329817.3    16.707111 
 5576000    1619.3406   -733.88331    300100.22    16.980823 
 5576500    1414.7868   -742.59774    286281.97    16.552366 
 5577000    1518.7062   -738.06638    295182.33    16.776657 
 5577500     1501.619   -729.78297    302266.47    16.728817 
 5578000    1519.6473   -731.64904    301804.73    16.782924 
 5578500    1379.1084   -740.19632    286696.77    16.786649 
 5579000    1418.4809   -745.40486     281635.8    16.622515 
 5579500    1495.5976   -729.31597    313095.08    16.574033 
 5580000    1565.3314   -738.48156    297435.68    16.665815 
 5580500     1385.592   -742.32633    281144.73     17.00557 
 5581000     1418.559   -730.67161    303832.14    16.769604 
 5581500    1404.7124   -729.40771    303816.67     16.91292 
 5582000    1445.5158   -739.93599    298660.49    16.194772 
 5582500    1470.7613   -740.78376     300834.1    16.154979 
 5583000    1619.7977   -737.16979    295129.69    16.687442 
 5583500    1527.6846   -734.22705    308424.79    16.092526 
 5584000    1684.0354   -755.12456    287827.33    15.668569 
 5584500    1460.1729   -765.85404    293819.39    15.168358 
 5585000    1443.8939   -758.93153     296750.2    15.261332 
 5585500    1427.9334   -758.36659    287434.76    15.452879 
 5586000    1627.5687   -750.07142    288832.31    15.720589 
 5586500    1633.0605   -750.98161    311937.56    15.423968 
 5587000    1677.6826   -752.96546    312411.63    15.361112 
 5587500    1503.6106    -740.7979    311371.24    15.732266 
 5588000    1685.5156     -754.724    301941.05    15.428271 
 5588500    1551.6751   -763.00515    297081.23    15.255004 
 5589000    1523.5622   -751.19691    281297.36    15.846353 
 5589500    1389.9206   -739.75948    296808.48    16.056887 
 5590000     1534.662    -734.6293    312150.38    16.068568 
 5590500    1382.3937   -738.47632    291045.74    16.503007 
 5591000    1407.4964    -736.9092       293211    16.455243 
 5591500    1464.0394   -737.78599    304487.69    16.061975 
 5592000    1622.4795   -749.20626    310068.63    15.647786 
 5592500    1549.4649   -758.51473    300956.88    15.106003 
 5593000    1533.6454   -767.82549    294856.31    15.086306 
 5593500    1401.4278   -769.27476    275864.72    15.343916 
 5594000    1455.4212   -769.01502    281407.05    15.188951 
 5594500    1524.4031   -765.01481    295905.87    15.097788 
 5595000    1515.2791   -754.96346    315560.17    15.113265 
 5595500    1455.7967   -748.59078    323489.33     15.29628 
 5596000    1509.8861   -756.66426    307351.76    15.365615 
 5596500    1464.1661   -754.46564    308448.73    15.163859 
 5597000    1554.3041   -756.56791    303313.98    15.368448 
 5597500    1618.7756   -762.40698    302218.52    15.098178 
 5598000    1592.9385    -769.1459    289405.24    15.204421 
 5598500    1455.2915   -768.17141    283818.07    15.144327 
 5599000    1519.2844   -761.81478    291836.89    15.322153 
 5599500    1519.7366    -761.9731    300247.48    15.166973 
 5600000    1484.4836    -757.1936    301277.54    15.391974 
 5600500    1544.4359   -760.92956    309779.86    15.033822 
 5601000    1501.7818   -755.59772    314423.94    15.282703 
 5601500    1434.4284   -760.64516    307773.71    15.059613 
 5602000    1455.9819    -755.2139    300433.35    15.422307 
 5602500    1526.5467   -767.62613    292915.15    15.203218 
 5603000      1466.55   -769.30513    283903.44     15.04405 
 5603500     1558.678   -764.98547    286945.55    15.317135 
 5604000    1550.4581    -766.8836     293598.5    15.243574 
 5604500    1580.0805   -756.56693    310977.43    15.219707 
 5605000    1493.3779   -752.34106    316988.62     15.23615 
 5605500    1482.5187   -753.41713    325337.39    15.177493 
 5606000    1480.5005   -760.27046    303771.83    15.153835 
 5606500    1677.3614   -757.39655    306408.26    15.230365 
 5607000      1485.14   -753.16657    297465.51    15.492128 
 5607500    1415.3429   -748.96154    285265.46    16.004251 
 5608000    1463.2935   -734.43653    306259.51    16.321817 
 5608500    1500.2959    -735.2146    301971.68    16.570497 
 5609000    1595.6639   -735.43694    294337.12    16.467808 
 5609500    1557.6808   -736.77301    299993.88    16.446728 
 5610000    1660.8251   -734.03104    296530.03    16.873005 
 5610500    1465.3483   -730.18994    304125.08    16.834311 
 5611000     1624.187   -722.15421    325845.34    16.829818 
 5611500     1581.933   -731.90393    296695.75    16.840345 
 5612000    1434.4582   -742.11922     279873.4    16.485977 
 5612500    1557.5274   -736.17957    291882.06    16.691506 
 5613000    1583.3884    -740.2795    293858.01    16.161762 
 5613500    1452.8343   -746.41331    301438.11    15.737826 
 5614000    1568.3883   -738.29276    330391.32    15.481447 
 5614500      1666.06   -744.07547    309180.92    15.774462 
 5615000    1519.0998   -742.22003    295878.64     16.19799 
 5615500    1533.0065   -738.51421    295096.34    16.690302 
 5616000    1539.4192   -739.73141     291931.6    16.669079 
 5616500    1532.2612   -736.52679    295642.13     16.48604 
 5617000    1509.7369   -728.72631    306096.91    16.828661 
 5617500       1538.5   -739.55127    288721.85    16.465836 
 5618000    1554.9262   -736.23739    306400.69    16.144708 
[...]
24848000    1590.0464   -739.87422    307187.06    15.922471 
24848500    1436.9165   -755.65872    286767.47    15.593648 
24849000    1607.3654   -767.30393    289954.72    15.114734 
24849500    1600.7042   -765.56669    296636.29    15.205245 
24850000    1460.4622   -760.94532    299194.49    15.129971 
24850500     1565.397   -754.73005     311115.8    15.299367 
24851000    1476.2195   -757.65033    310899.86    14.936411 
24851500    1703.6693     -758.672    302988.11    15.031968 
24852000    1586.2132   -765.70287    301066.62     15.09244 
24852500    1556.9628   -743.25725    323195.66    15.470163 
24853000    1405.8405    -751.4176    316425.99     15.02026 
24853500    1466.3336   -759.86475    303947.23    15.107908 
24854000    1560.3293   -761.86562    297676.82    15.116988 
24854500    1380.1201   -761.91584    290343.73    15.064825 
24855000    1630.6795   -770.67054    277504.78    15.349785 
24855500    1442.4148   -765.17583    290301.94    15.065876 
24856000    1522.7404   -763.80076    303444.78    15.043047 
24856500    1499.9026   -758.88037    305478.11     15.37411 
24857000    1351.9224   -758.45291    305868.71    15.174047 
24857500    1625.7752   -767.24073    285205.95    15.228197 
24858000     1463.942   -763.17503    281378.04    15.433785 
24858500    1572.4383   -761.98861    286354.14    15.342873 
24859000    1579.4556   -761.37492    309409.33    14.990215 
24859500    1667.0906   -760.34652    306688.11    15.139172 
24860000    1502.8886   -758.34445     310119.6    14.987928 
24860500    1479.9397   -762.21545    292929.73    15.336772 
24861000    1381.3017   -767.16842    285553.36     15.10909 
24861500     1596.959   -765.89334     293104.2    15.110004 
24862000    1514.0084   -755.98481    300690.11    15.390171 
24862500    1455.2082   -737.78523    332364.95    15.449397 
24863000    1624.7019   -745.63235    317211.71    15.642605 
24863500    1527.0264   -747.66478    310536.86    15.590912 
24864000    1549.0865   -749.08427    294327.28    15.847137 
24864500    1471.7817   -752.35867    288384.86    15.736116 
24865000    1478.6542   -751.65382    284809.66     15.88201 
24865500     1509.128   -753.40554    303176.16    15.500314 
24866000    1336.7123   -755.26954    311665.28    15.209043 
24866500     1605.095   -753.98595    303799.88    15.250359 
24867000    1674.9633   -747.25646    304050.11    15.644304 
24867500    1433.0876   -753.94228    281855.75    15.495292 
24868000    1445.6759   -768.51055    277725.28    15.373893 
24868500      1578.87   -765.52488    284234.34    15.259071 
24869000    1422.8455   -758.95808    294763.38    14.949435 
24869500    1428.2522   -757.21521    308692.53    15.263507 
24870000    1427.7254   -751.73998    318775.54    15.290434 
24870500     1706.959   -745.58835    312999.55    15.609192 
24871000    1447.0924     -754.226    295923.41    15.534096 
24871500    1544.0325   -747.34214    287907.31    16.167595 
24872000    1506.9279   -735.88277    306210.84    16.124067 
24872500    1797.6331   -737.80052    308527.18    16.056932 
24873000     1432.136   -735.32519    306643.56    16.158974 
24873500    1467.0477   -752.36979    292908.74    15.631352 
24874000    1547.8663   -753.28338    294361.21    15.597338 
24874500    1424.1439   -765.19819    291092.01    14.991096 
24875000    1473.3568   -763.82672    295223.18    15.344619 
24875500    1483.1581    -762.2754    304470.45    15.002651 
24876000    1524.8197   -755.67206    291232.69    15.618619 
24876500    1561.9044   -744.69223    287872.22    16.114163 
24877000    1531.2593   -739.33619    298304.31    16.287584 
24877500    1488.5175   -728.39404    316621.04    16.833961 
24878000    1510.0893   -732.59624    310393.96    16.578287 
24878500      1342.59   -737.74349    289034.32    16.769309 
24879000    1561.9082   -736.57911    287035.09    16.966597 
24879500    1396.8054   -726.83393     313221.6    17.028838 
24880000    1695.1768    -736.3403    300107.53    16.547648 
24880500     1569.299   -741.90115    304596.46    15.935159 
24881000    1451.5299   -757.28957    284115.67    15.761269 
24881500    1398.6789   -755.60826    292862.09    15.590428 
24882000    1433.2023   -752.78177    296253.79     15.51298 
24882500    1620.0967   -741.76044    304558.35    16.009661 
24883000     1631.234   -727.29733    312641.88    16.669698 
24883500    1509.3195   -732.48005    313830.61    16.606917 
24884000    1464.8652   -733.53972    292297.67     17.03262 
24884500    1528.9336   -741.63213    285950.43    16.648505 
24885000     1484.595   -734.42519    293766.92    16.654875 
24885500    1467.1425   -724.26108    317772.21    16.986122 
24886000    1414.1189   -739.21847    291532.06    16.434377 
24886500    1428.0824   -732.38891    297666.66    16.910443 
24887000    1442.4101   -732.84094     300254.7    16.869154 
24887500    1573.5082   -734.99306    314490.85    16.225811 
24888000    1410.3484   -748.62475    274828.79    16.136461 
24888500    1515.8644   -746.69636    284834.65    16.220709 
24889000    1585.7251   -739.44155    298408.25    16.250443 
24889500    1396.1947   -734.89949       298620    16.873424 
24890000    1476.3673   -734.56684    292879.97    16.877125 
24890500    1428.5363   -726.34601    324083.55    16.587425 
24891000    1518.0367   -731.52989    304448.68    16.893944 
24891500    1535.0524   -736.92834    286790.14    16.770544 
24892000    1491.9486   -725.94486    322984.58     16.60322 
24892500    1502.2396   -731.75818    305316.12    16.735782 
24893000    1492.2367   -739.99717    286346.03    16.989584 
24893500    1509.5199   -727.51157    305015.51    17.051986 
24894000    1636.8732   -730.48494    308026.48      16.6748 
24894500    1519.3098   -733.36358     301463.3    16.620513 
24895000    1437.4708   -741.03481    277576.95    16.894101 
24895500    1473.9391   -740.73507    288219.61    16.639733 
24896000    1505.1803   -736.14681    304344.16    16.539748 
24896500    1584.9158   -737.24407    290607.16    17.031386 
24897000    1563.3513   -737.30716    285385.08    17.118191 
24897500    1397.3738   -737.40194    304045.06    16.253816 
24898000    1455.2931   -737.59927     291547.9    16.701386 
24898500    1584.3508   -730.21526    318255.62    16.509784 
24899000    1558.7953   -733.76287    291596.29    16.885221 
24899500    1519.5796   -737.85024    291883.64    16.825188 
24900000    1549.4223   -720.13091    329333.75    16.824164 
24900500    1587.7359   -736.35771    303067.07    16.736672 
24901000    1510.5719   -732.60394    305428.63    16.734293 
24901500      1527.51   -740.44466    294134.75    16.473354 
24902000    1432.0043   -731.28878    300613.42    17.096242 
24902500    1533.4358   -728.63855    315830.93    16.477928 
24903000    1526.1627   -737.94667    289820.58    16.534012 
24903500    1516.9595   -734.40961    308860.15    16.578389 
24904000    1420.2781   -736.75738    307359.42    16.443324 
24904500    1414.8171   -739.45811    285800.23    16.738948 
24905000    1591.0392    -730.9837    300337.11    16.858568 
24905500    1525.2608    -729.0405    315796.53    16.995393 
24906000     1482.305     -734.519    293986.21    16.864205 
24906500    1515.6665   -730.80151    305101.76    16.792273 
24907000    1561.2436   -732.21167    304764.57    16.962108 
24907500    1572.6423   -737.56431     293641.6    16.609709 
24908000    1467.3992   -734.78437    299434.59    16.226384 
24908500    1361.4546   -738.45228    306090.04    16.096569 
24909000    1518.0233    -741.0527    291508.53    16.437845 
24909500    1604.6647   -737.99851     289634.7    16.599716 
24910000    1492.2234   -736.43818    298291.94    16.868464 
24910500     1650.018   -735.67694    290247.87    16.808166 
24911000    1529.7057   -728.98357    314451.61    16.688318 
24911500    1482.4408    -727.6998    326161.72    17.128274 
24912000    1430.0542   -733.11021    297143.41     16.63892 
24912500    1573.0143   -739.86544    294070.58    16.604438 
24913000    1437.4575    -725.5396    317754.66    16.808278 
24913500    1557.6634   -739.32138    293398.22    16.693736 
24914000    1428.8207   -737.98764    291828.98    16.710778 
24914500    1653.6999   -723.18179    324248.31    16.827769 
24915000    1471.4852   -729.96638    304901.52      16.9158 
24915500    1464.3298   -736.43558    287222.76    17.080173 
24916000    1514.3942   -736.87689    298868.43    16.459786 
24916500    1464.9889   -733.51387    303431.88    16.774751 
24917000    1357.4594   -730.63272     308400.7    16.638516 
24917500    1445.9753    -731.8768    310178.84     16.68856 
24918000    1466.8307   -736.96102    288487.39    16.763769 
24918500    1566.0406   -730.02748    313753.09    16.635212 
24919000    1423.7305   -734.70014    295830.81    16.934241 
24919500    1432.6085   -740.46925    280321.42    16.996775 
24920000    1480.6928   -724.21043    317655.47    16.701868 
24920500    1459.2787   -725.89976    309521.61    16.852089 
24921000    1573.7028   -740.09917    292519.73    16.619709 
24921500    1349.7826   -731.22397     302962.7    16.868666 
24922000    1666.1459   -728.90894    315364.23    16.613057 
24922500    1488.7458   -742.96154    297859.29    16.033525 
24923000    1400.6083   -742.26804    288618.11    16.177419 
24923500    1375.5951   -738.02532    292168.05    16.581573 
24924000    1427.1039     -736.579    307009.57    16.048997 
24924500    1597.1704   -751.87847    300311.16     15.65494 
24925000    1401.1827   -748.06822    303142.75    15.543004 
24925500     1620.432   -764.30451    296433.88    14.986854 
24926000    1364.3539   -755.01545    298268.01    15.537088 
24926500    1439.6685   -748.56938    304582.64    15.527819 
24927000    1572.5278   -741.86284    298295.06    16.270897 
24927500    1523.5219   -733.16218    302235.53    16.641959 
24928000    1464.4825   -736.18462    304718.97    16.283189 
24928500    1628.2812   -742.64606    291551.53    16.036564 
24929000    1517.2569   -759.61168    292052.73    15.408752 
24929500    1419.0349   -763.98107    294826.01    15.053061 
24930000    1500.6544    -759.6572    309641.39    15.060921 
24930500    1503.1633   -744.68477    319384.66    15.445827 
24931000    1505.7183    -749.1176    309184.59    15.530607 
24931500    1539.9956   -744.68835    293986.49    15.817013 
24932000    1526.1643   -750.67626    274688.74    16.236379 
24932500    1337.8867   -738.66054    303067.84    16.026912 
24933000    1507.4546    -738.8135     305838.9     16.15857 
24933500    1408.5197   -737.70136    301782.34    16.199167 
24934000    1574.9845   -745.74076    311729.38    15.603322 
24934500    1497.2081   -748.10635     303297.1    15.625128 
24935000    1518.6653    -753.4663    282964.95    15.801777 
24935500    1534.7166   -758.59129     269998.6    15.697167 
24936000     1545.578   -750.96502    292269.35    15.689396 
24936500    1519.6766   -757.08617    305157.53    15.243044 
24937000    1586.4744   -758.58063    307275.17    15.270163 
24937500    1442.3476   -754.16443     316143.6    15.066598 
24938000    1471.6211   -752.07106    315931.68    15.305691 
24938500    1514.7376   -755.78885     311439.3    14.978232 
24939000    1580.4877   -753.07239    310570.57    15.406555 
24939500    1502.1791   -756.55502    315368.34    14.982748 
24940000    1517.5508   -754.02712    304416.81    15.367826 
24940500    1517.3369   -755.30604     304469.8    15.309164 
24941000    1494.0229   -766.90143    294631.02    15.172264 
24941500    1487.5947   -769.81103    280779.47    15.097594 
24942000    1537.6809   -763.15689    283768.14      14.9766 
24942500    1550.7665   -756.25095    299675.32    15.353085 
24943000    1450.2352   -761.61081    306767.84    14.954287 
24943500    1535.0533    -754.7788     300719.7    15.408805 
24944000    1400.3487   -749.57201     314476.6    15.250589 
24944500    1532.3664   -761.31809    312795.78     15.09467 
24945000    1515.3059   -762.51876    300338.63    15.187509 
24945500     1409.347   -752.90877    296151.58    15.680624 
24946000    1566.6344    -760.7113    296979.89    15.217889 
24946500    1600.9997   -753.78122    299546.39    15.497167 
24947000    1360.2753   -737.83604    302433.41      15.8337 
24947500    1504.5292   -762.00388    279434.87    15.514861 
24948000    1462.3883   -768.19553    281089.07    15.313738 
24948500    1419.4349   -763.19059    293015.35     15.23346 
24949000    1587.3734   -760.27356    299915.09    15.247879 
24949500    1470.2926   -751.58671    316070.68    15.212408 
24950000    1488.4556   -756.09239     315784.1    14.996287 
24950500     1575.385   -755.58687    320008.23     15.06573 
24951000    1624.3202   -760.38438    313297.99    15.030225 
24951500    1477.0036   -758.97871    293372.24    15.351565 
24952000    1595.5593    -765.7381    289775.51    15.010844 
24952500    1482.2033   -760.53766    304589.92    15.145646 
24953000    1496.6378   -758.77239    299980.99    15.231037 
24953500    1552.4969   -766.87511    285273.07    14.994347 
24954000    1476.8829   -757.44063    286679.22    15.627647 
24954500    1352.0737   -752.86213    290014.25    15.550444 
24955000    1418.2698   -764.06582    294308.29    15.064817 
24955500    1554.0178    -758.4598     299419.2    14.949392 
24956000    1454.3311   -758.37205    292940.13    15.533247 
24956500    1504.1376   -756.94856    293646.23    15.573503 
24957000    1556.3152   -765.47191    291559.72    15.063476 
24957500    1590.3784   -759.29647    308993.26    15.209504 
24958000    1577.3979   -744.47782    319439.42    15.417161 
24958500    1464.8935   -753.76242    316387.63    14.986112 
24959000    1505.7564   -761.14791    301560.08    15.226668 
24959500    1509.0116   -758.63689    297242.35    15.262466 
24960000    1457.0114   -759.94564    301903.39    14.914973 
24960500    1496.0988   -759.89258    298738.21    15.219057 
24961000    1509.7166   -766.63636    290075.25    15.194445 
24961500     1369.761   -753.75882    288963.96    15.594409 
24962000    1656.1463   -745.42597    305902.36    15.554542 
24962500    1567.9003   -749.83943    310411.81    15.572888 
24963000    1423.4203   -756.49644    311873.99    15.185051 
24963500    1492.0264   -757.80635    292658.65    15.488933 
24964000    1470.9128   -766.42836    287306.21    15.110802 
24964500    1474.5479   -759.03499     292775.8    15.239235 
24965000    1464.9136   -760.92779    301722.17    15.144847 
24965500    1430.7941   -751.79246    310760.09    15.005522 
24966000    1473.0101   -761.27863    309953.43    14.997862 
24966500    1492.3656   -747.97861    302088.47    15.528104 
24967000    1496.1475   -757.30381    293682.64    15.484353 
24967500    1474.9801   -765.72149    287203.09    15.072687 
24968000    1492.5439   -762.56593    282333.27    15.429775 
24968500    1529.3756   -762.51639    288376.79    15.312506 
24969000    1569.8284    -750.6019    302329.91     15.47824 
24969500    1617.7614   -753.53417    311547.24    15.353186 
24970000    1552.2347   -746.40429    317616.44    15.274515 
24970500    1478.2988   -744.38877    293880.75    15.952719 
24971000    1508.8804   -739.62805    293866.71    16.450496 
24971500    1587.0253   -734.15444     296089.6    16.894509 
24972000    1538.5272   -734.67295    297299.04    16.858884 
24972500    1546.9433   -726.92774    318581.95    16.996949 
24973000    1485.3187   -727.34877    311859.09    16.731316 
24973500    1534.9733   -737.22035    286296.48    16.822966 
24974000    1577.8012   -735.51269    300770.91    16.637183 
24974500    1591.5496   -737.05174    291656.58    16.766903 
24975000    1356.1618    -728.7247    306614.18    16.643729 
24975500    1443.0909   -736.73958    285374.11    16.831208 
24976000    1465.9555   -739.35101    300728.77    16.372497 
24976500    1576.5823   -731.43495    310170.77    16.481984 
24977000    1395.0869    -742.2392    294849.15    16.204028 
24977500    1435.8284   -737.11481    300109.78    16.225533 
24978000    1579.6823   -731.07565    314662.41    16.262284 
24978500    1466.0092   -734.56373    300594.54    16.916796 
24979000    1504.3526   -733.14935    299841.29     16.98026 
24979500     1537.238    -741.2402    277644.84    16.930633 
24980000    1574.3724   -727.20573    313021.85    16.685676 
24980500    1546.5201   -730.03158    305169.39    16.980186 
24981000    1566.9584   -741.75319    279225.19     16.86073 
24981500    1376.5805   -737.03502    301759.12    16.433426 
24982000    1473.0777    -733.5455    297691.28    16.837052 
24982500    1404.7905   -728.33567    306016.07    16.500359 
24983000    1704.4705   -737.04134    306612.17    16.314938 
24983500    1385.0234   -746.01961    292938.27    16.000564 
24984000    1460.3519   -730.99529    311457.65     16.43296 
24984500    1516.5923   -729.02964    306503.88    16.991401 
24985000    1560.2743   -730.42158    302246.37     16.86076 
24985500    1496.2098   -732.89364    295512.25    16.899769 
24986000    1544.9782   -736.11553    306049.21    16.422795 
24986500    1488.8237    -736.1509    301841.93    16.435027 
24987000    1497.1134   -736.88865     288681.1    16.653481 
24987500     1510.874   -739.86804    287510.44    16.745855 
24988000    1512.8317   -731.74848    304632.76    16.747905 
24988500    1421.9738    -739.4509       294896    16.174421 
24989000    1570.7677   -751.89789    272685.65    16.223899 
24989500    1460.3271    -727.4593    325403.49    16.085986 
24990000    1517.0672    -738.2799    309696.93    16.196241 
24990500    1613.5667   -743.43414    299927.93    16.096069 
24991000    1532.1636   -741.68305    293789.99    16.292375 
24991500    1587.9405   -729.77103    324730.17     16.15427 
24992000     1608.051   -738.25282    317594.75    15.934935 
24992500    1623.9404   -748.56593    278624.47    16.322036 
24993000    1491.5492   -742.24489    286386.66    16.317834 
24993500    1511.4871   -746.76499    299560.37    15.805641 
24994000    1460.5749   -751.87533    301866.47    15.614787 
24994500    1503.5675   -747.48271    316442.89     15.43603 
24995000    1543.3933   -755.25122    316479.95    14.973346 
24995500    1448.9996   -751.25577    313985.18    15.260186 
24996000    1506.7249   -748.78621    296519.94    15.799573 
24996500     1537.672    -738.4869    301929.76    16.401918 
24997000    1472.7756    -730.4203    303311.71    16.684741 
24997500     1561.181   -734.51549    294209.46    16.799703 
24998000    1516.4996   -732.08846    310427.22    16.512289 
24998500    1437.7721   -735.15072     301995.4    16.563296 
24999000    1507.6303   -747.38251    278052.89    16.375309 
24999500    1458.6903   -735.60728    304333.77    16.274363 
25000000    1558.1148   -732.45904    304806.86    16.810031 
Loop time of 6622.78 on 8 procs for 20000500 steps with 256 atoms

Performance: 521.848 ns/day, 0.046 hours/ns, 3019.955 timesteps/s
97.2% CPU use with 8 MPI tasks x no OpenMP threads

MPI task timing breakdown:
Section |  min time  |  avg time  |  max time  |%varavg| %total
---------------------------------------------------------------
Pair    | 3361.4     | 3505.6     | 3640       | 141.8 | 52.93
Neigh   | 75.137     | 76.999     | 79.258     |  16.6 |  1.16
Comm    | 846.93     | 993.12     | 1151.9     | 288.1 | 15.00
Output  | 122.52     | 122.54     | 122.66     |   0.4 |  1.85
Modify  | 1848.4     | 1860.5     | 1869.6     |  15.4 | 28.09
Other   |            | 64.08      |            |       |  0.97

Nlocal:    32 ave 33 max 31 min
Histogram: 1 0 0 0 0 6 0 0 0 1
Nghost:    1070.88 ave 1077 max 1064 min
Histogram: 1 1 0 1 0 1 1 1 1 1
Neighs:    2780.25 ave 2870 max 2695 min
Histogram: 1 0 0 1 1 4 0 0 0 1

Total # of neighbors = 22242
Ave neighs/atom = 86.8828
Neighbor list builds = 704686
Dangerous builds = 0

write_data	data.final
Total wall time: 1:50:23
