LAMMPS (8 Feb 2019)
Processor partition = 0
echo both

include         in.partitions
variable p_id world   0 1 2 3
include		in.temp
variable	temperature equal 1500.0
variable	tempDamp equal 0.1 # approx 0.1 ps
include		in.pressure
variable	pressure equal 300000.
variable	pressureDamp equal 1.0
include 	in.seed
variable	seed world 74581 3459 97394 49764
units		metal
read_restart    Restart.lmp.${p_id}
read_restart    Restart.lmp.0
  restoring atom style atomic from restart
  orthogonal box = (-0.117843 -0.117843 0.312802) to (15.2702 15.2702 14.8396)
  2 by 2 by 2 MPI processor grid
  pair style eam/alloy stores no restart info
  256 atoms
include 	in.setup
variable	out_freq equal 500
variable	out_freq2 equal 500

neigh_modify    delay 10 every 1
include		in.al
### Argon Potential Parameters ###
pair_style 	eam/alloy
pair_coeff 	* * Al99.eam.alloy Al

timestep	0.002 # According to Frenkel and Smit is 0.001

thermo          ${out_freq}
thermo          500
thermo_style 	custom step temp pe press lx


restart 	${out_freq} Restart.lmp.${p_id} Restart2.lmp.${p_id}
restart 	500 Restart.lmp.${p_id} Restart2.lmp.${p_id}
restart 	500 Restart.lmp.0 Restart2.lmp.${p_id}
restart 	500 Restart.lmp.0 Restart2.lmp.0



timer 		timeout 23:50:00 every 1000
New timer settings: style=normal  mode=nosync  timeout=23:50:00

# NPT

include		in.dump
dump            myDump all atom ${out_freq2} dump.al.${p_id}
dump            myDump all atom 500 dump.al.${p_id}
dump            myDump all atom 500 dump.al.0
dump            myDcdDump all dcd ${out_freq2} out.${p_id}.dcd
dump            myDcdDump all dcd 500 out.${p_id}.dcd
dump            myDcdDump all dcd 500 out.0.dcd
dump_modify	myDump append yes
dump_modify     myDcdDump append yes



fix             1 all plumed plumedfile plumed.dat outfile plumed.out
fix             2 all nph aniso ${pressure} ${pressure} ${pressureDamp} couple xy
fix             2 all nph aniso 300000 ${pressure} ${pressureDamp} couple xy
fix             2 all nph aniso 300000 300000 ${pressureDamp} couple xy
fix             2 all nph aniso 300000 300000 1 couple xy
Resetting global fix info from restart file:
  fix style: nph, fix ID: 2
fix             3 all temp/csvr ${temperature} ${temperature} ${tempDamp} ${seed}
fix             3 all temp/csvr 1500 ${temperature} ${tempDamp} ${seed}
fix             3 all temp/csvr 1500 1500 ${tempDamp} ${seed}
fix             3 all temp/csvr 1500 1500 0.1 ${seed}
fix             3 all temp/csvr 1500 1500 0.1 74581
fix             4 all momentum 10000 linear 1 1 1 angular

run             25000000 upto # 50 ns
All restart file global fix info was re-assigned
Neighbor list info ...
  update every 1 steps, delay 10 steps, check yes
  max neighbors/atom: 2000, page size: 100000
  master list distance cutoff = 8.28721
  ghost atom cutoff = 8.28721
  binsize = 4.1436, bins = 4 4 4
  1 neighbor lists, perpetual/occasional/extra = 1 0 0
  (1) pair eam/alloy, perpetual
      attributes: half, newton on
      pair build: half/bin/atomonly/newton
      stencil: half/bin/3d/newton
      bin: standard
Per MPI rank memory allocation (min/avg/max) = 4.014 | 4.015 | 4.015 Mbytes
Step Temp PotEng Press Lx 
 4999500    1513.0041   -750.58646    309250.02    15.388088 
 5000000    1435.6948   -758.33214    304432.13    15.245264 
 5000500    1571.2948   -758.01109    311470.76    15.245872 
 5001000    1472.5163   -751.01067    299126.63    15.588568 
 5001500     1389.419   -754.74998    281172.49    15.834889 
 5002000    1643.2424   -752.42024    286479.79    15.754909 
 5002500    1513.9995   -751.46206    301050.07     15.55269 
 5003000    1448.5893   -735.46897    325797.09    15.783043 
 5003500    1571.0946   -744.60233    309951.79    15.598746 
 5004000    1493.0513   -751.34951    296680.09    15.591482 
 5004500    1413.2705   -765.90802    263716.46    15.648015 
 5005000    1658.9811   -757.65698    275718.89    15.761594 
 5005500    1329.2249   -755.31113    288106.71    15.584433 
 5006000    1681.8506   -762.20754    292822.07    15.241142 
 5006500     1427.569   -759.01498    309760.05    15.082528 
 5007000     1519.348   -753.18939    311170.52     15.27311 
 5007500    1542.5832   -760.90622    311116.32    14.948903 
 5008000    1491.4138   -753.49161    302160.31    15.490921 
 5008500    1452.8374   -748.90454    290631.75    15.868772 
 5009000    1511.4312   -745.25527    285316.14    16.279897 
 5009500    1485.0026   -748.64934    297457.13    15.630854 
 5010000    1366.5745   -737.26757    311636.53    15.862725 
 5010500    1519.6401    -735.8377    299119.78    16.579323 
 5011000    1495.9798   -742.11148    286541.17     16.40455 
 5011500    1499.9845   -748.43845    298616.42    15.793787 
 5012000    1443.9837   -758.48364    309992.31    15.011254 
 5012500    1666.5925   -757.95272    306748.81    15.232566 
 5013000    1575.7141   -748.09535    297442.87    15.675673 
 5013500    1515.3732   -742.96423     297526.1    15.958678 
 5014000    1502.8796   -733.45348    311130.28    16.292043 
 5014500    1483.0248   -743.63579    309280.69    15.683566 
 5015000    1481.5937   -752.03717    302979.36    15.551601 
 5015500    1422.5447   -754.03187    284015.41    15.722855 
 5016000    1491.8546   -768.36826    274291.81    15.581621 
 5016500    1547.0381   -748.87613     289646.8    15.753124 
 5017000    1480.6118   -745.34508    304953.49    15.534614 
 5017500    1604.1558   -765.58368    301248.44     15.09753 
 5018000    1370.2045   -756.28877    308827.57    15.031054 
 5018500    1555.7172   -754.17398    307394.74    15.450239 
 5019000    1458.4546   -757.69793    294024.93    15.343247 
 5019500    1471.3151   -763.48409    292122.69    15.072153 
 5020000    1564.6161   -763.06287    301166.19     15.05685 
 5020500    1513.4059   -749.00889    315963.78    15.370224 
 5021000     1485.103   -756.91046    303615.98    15.132536 
 5021500    1448.0677   -767.72514    281968.11    15.191223 
 5022000    1514.5223   -763.23709    279236.25    15.477319 
 5022500    1544.4428   -766.72091     287707.9    15.258423 
 5023000    1468.2337   -754.71805    298735.28    15.451359 
 5023500    1407.8486   -735.20509    296553.81    16.455026 
 5024000    1581.3051   -738.74317    290639.92    16.609359 
 5024500    1509.1796    -730.8937    308991.44    16.496638 
 5025000    1635.9047   -729.40603    312334.78    16.880298 
 5025500    1490.7269   -737.22939    293820.53    16.735511 
 5026000     1440.448   -733.01461    312793.69     16.40053 
 5026500    1452.6975   -731.79204    307437.48     16.49034 
 5027000    1422.1139   -737.55143    289202.88    16.674505 
 5027500    1578.4187    -737.8338    297899.65    16.367945 
 5028000    1528.1427   -732.13358       303081    16.701445 
 5028500    1501.1801   -744.20906    275602.97    16.623133 
 5029000    1416.7345   -732.20395     297945.4    16.578588 
 5029500    1435.7638   -732.45265    316188.48    16.441599 
 5030000    1405.0891   -743.05077     289419.1    16.318758 
 5030500    1523.1216   -738.85979    291185.08    16.737768 
 5031000    1503.9428   -733.29478    308471.01     16.62202 
 5031500     1631.777   -732.50661    306124.86    16.694985 
 5032000    1576.2888   -739.27971    292587.77    16.461588 
 5032500     1617.231    -750.0912    273437.01     16.19313 
 5033000    1555.8119   -741.27202    301416.99    16.226394 
 5033500    1477.4656   -733.26064    300481.62    16.579552 
 5034000    1532.1311   -733.87171    293904.81    16.744004 
 5034500    1425.2889   -735.61832    301620.38     16.61412 
 5035000    1410.6265   -729.10883    302328.06    16.840126 
 5035500    1468.3016   -736.76098    305256.05    16.354229 
 5036000    1540.9441   -733.17168    328171.05    15.836415 
 5036500    1584.9225   -742.65394    291731.14    16.332683 
 5037000    1523.7726   -735.05345     296073.4    16.507234 
 5037500    1656.4656   -731.21105    309196.96       16.718 
 5038000    1680.5371   -742.82547    284924.72    16.424881 
 5038500    1553.2745   -740.86501    292813.96    16.612651 
 5039000    1545.7216    -728.2335    310041.16    16.811254 
 5039500    1448.3652   -728.06889     303924.8    16.685719 
 5040000    1473.1902   -742.27886    279041.52    16.561705 
 5040500    1518.0346   -730.33842    308902.58    16.679208 
 5041000    1490.5176   -737.98046    295166.48     16.74806 
 5041500    1569.2319   -739.55444    296257.06    16.550406 
 5042000     1487.017   -729.72083    322916.39    16.159738 
 5042500    1468.8585   -741.92252     300262.6    16.048325 
 5043000    1600.0437   -738.47637    288632.88    16.673593 
 5043500     1716.489   -734.01192    306564.02     16.68128 
 5044000    1379.7386   -737.63382    294088.39     16.53549 
 5044500      1475.15   -743.36781    289123.82    16.445924 
 5045000    1541.6966   -739.49716    289335.85    16.543322 
 5045500      1566.14   -721.59275    318250.54    16.610124 
 5046000    1602.1149   -743.62416    290118.54    16.236482 
 5046500    1480.8836   -743.39525       288829    16.339388 
 5047000     1504.532   -751.74975    292127.82    15.637542 
 5047500    1417.2015   -755.76985    303920.16    15.371983 
 5048000    1519.7096   -755.43369    309857.58    15.218985 
 5048500    1542.6903   -754.71137    294577.49    15.535759 
 5049000     1370.481   -768.21577    285561.41    15.276082 
 5049500    1430.2908   -761.48152    276450.34    15.586079 
 5050000    1445.5873    -743.1172    303265.36     15.78828 
 5050500     1563.339   -740.76449    321569.59    15.460946 
 5051000    1582.6601   -743.10228    322195.77    15.691032 
 5051500    1622.7468   -745.83951    300674.72    15.612525 
 5052000     1526.632   -755.09942    295471.33    15.572152 
 5052500    1513.5957   -744.21976    294430.11    15.960599 
 5053000    1501.9877   -736.90676    298244.84    16.451375 
 5053500     1510.154   -737.50211    295048.94    16.772837 
 5054000    1488.8701    -735.4217    301855.12    16.556819 
 5054500     1579.238   -731.44715    306038.53    16.624678 
 5055000    1517.2085   -732.99999    294419.23    16.754215 
 5055500      1613.97   -731.52348    320446.65    16.150971 
 5056000    1641.1507   -741.65076    295746.24    16.089103 
 5056500    1436.0216   -744.67903    279432.86     16.30252 
 5057000    1440.5242   -740.83742    288307.11    16.442896 
 5057500    1579.3427   -734.13076    303328.99     16.47421 
 5058000    1554.0474   -725.84948    315846.73    16.688246 
 5058500    1529.1503   -731.80099    301747.84    16.804318 
 5059000    1472.5399   -740.69904    281986.08    16.641603 
 5059500    1482.6887   -733.79566    295114.65    17.016547 
 5060000    1471.6968   -731.04561    304922.75    16.865399 
 5060500    1704.3599   -732.16737    304011.03    16.933439 
 5061000    1503.2331   -742.97262    286698.96    16.944567 
 5061500    1553.1255   -734.67333    301670.02    16.534481 
 5062000    1504.1676   -729.06891    304414.12    16.786732 
 5062500    1509.3113   -731.69216    304597.76    16.627267 
 5063000     1508.074   -740.34009    293830.81    16.199524 
 5063500     1529.595   -739.03038    303120.53    16.150287 
 5064000    1482.9099   -730.27975    315220.53    16.258614 
 5064500    1447.4574   -729.07416    306353.88     16.75025 
 5065000    1468.9034   -732.83898    288604.73    17.046183 
 5065500    1470.9294   -725.13869    328217.45    16.423682 
 5066000    1492.2015   -737.38766    293697.02    16.580625 
 5066500    1492.4607   -740.91291    292636.69    16.677409 
 5067000    1387.7992   -731.47607    307441.38    16.461143 
 5067500    1566.8045   -734.17973    305454.19    16.224741 
 5068000    1485.8173   -743.79081    282766.82    16.362976 
 5068500    1512.6092   -729.62729    297467.62    16.972497 
 5069000    1619.3692   -731.16344    313804.14    16.591643 
 5069500    1604.9133   -739.79307    293559.95    16.242355 
 5070000    1423.3472   -723.83011     316360.4    16.878615 
 5070500    1443.2625   -735.07437    297120.06     16.75255 
 5071000    1526.2221   -732.65711    302005.52    16.738351 
 5071500    1413.0267   -739.92331    292543.42     16.34312 
 5072000    1526.2854   -734.48192     299970.7    16.894479 
 5072500    1579.1627   -739.50776    293104.41     16.52181 
 5073000    1467.1372   -738.85126    295281.76     16.21036 
 5073500    1616.0653   -734.98454    321973.04    15.803865 
 5074000     1439.909   -749.19035    293316.86    15.606803 
 5074500    1374.1469    -748.0771    286433.67    15.856492 
 5075000    1445.6899   -751.09361    302432.62    15.537045 
 5075500    1575.5056   -740.30729     315593.9    15.869499 
 5076000     1499.513   -739.34765    292074.93    16.408635 
 5076500    1596.6486   -734.73168    304116.16    16.522549 
 5077000    1448.7243    -737.4789    292902.15    16.823225 
 5077500     1509.487   -735.09775    284799.54    16.956784 
 5078000    1506.8596   -726.00409    318943.89    16.758591 
 5078500    1498.4301   -730.72379    307931.76    16.761779 
 5079000    1505.3882   -739.33935    283402.04    16.991028 
 5079500    1419.4595   -732.26613    292440.61    16.981761 
 5080000    1612.3956   -731.54878    307135.23    16.721379 
 5080500    1533.0777   -738.17395    297839.37    16.308024 
 5081000    1484.6896   -748.47584    285357.99    16.174335 
 5081500    1424.5403   -728.83162     306629.5    16.851454 
 5082000    1449.5282   -729.06718    310650.27    16.702707 
 5082500    1570.3136   -739.34947    288823.76    16.501127 
 5083000    1444.8708   -740.32339    303703.82    16.020189 
 5083500    1384.5854    -744.4892    287518.75    16.391863 
 5084000    1528.0919   -733.31525    296594.32    16.954935 
 5084500    1613.2857   -733.68952    298014.55    16.867809 
 5085000    1536.2246    -725.2302    306901.17    16.885349 
 5085500    1399.3773   -742.08162    279403.96    16.964966 
 5086000    1589.1958   -736.16346    306100.66     16.51604 
 5086500    1764.2912   -729.83767    310048.05    16.993796 
 5087000    1469.0615   -728.83278    306735.56    16.940783 
 5087500    1476.2855   -740.75021    281135.24    16.556811 
 5088000    1338.5977   -730.45963     309916.3    16.603535 
 5088500    1433.9573   -723.95842    314073.97    16.946421 
 5089000    1473.3975   -740.03622    294218.23    16.489221 
 5089500    1494.9943    -733.9317    298720.21    16.796044 
 5090000    1474.7492   -727.08062    302090.53    16.947466 
 5090500    1568.4054   -737.15706    294557.99    16.940203 
 5091000    1311.8828   -727.49825    313630.99      16.7646 
 5091500    1433.0868   -729.38966    301287.04    16.871055 
 5092000    1588.2067   -728.24457    309190.43    16.917956 
 5092500    1570.0341   -735.91797    309656.16    16.306544 
 5093000    1481.0595   -740.75707    296617.09    16.259149 
 5093500    1477.8367   -740.09723    282564.16    16.785585 
 5094000    1515.3051    -734.9291    304746.73    16.543882 
 5094500    1510.5808   -732.88935    301174.88    16.975156 
 5095000    1586.7421   -740.25907    274847.18    17.060762 
 5095500    1526.7652   -740.96633    276191.94    16.882594 
 5096000    1401.6181   -728.07587     313233.3    16.519859 
 5096500     1499.212    -733.9007    300712.63     16.62078 
 5097000     1573.951   -739.98856    307211.54    15.993483 
 5097500    1668.6286   -750.28678    300163.79    15.710566 
 5098000    1431.7562   -738.03002    296996.36    16.360287 
 5098500    1522.8346    -732.6484    298575.78    16.912901 
 5099000    1513.0039   -736.59632    285518.84    16.864566 
 5099500    1494.6039   -731.01737    300815.05    16.813668 
 5100000    1440.9956   -738.51868    304203.41    16.157802 
 5100500    1351.3452   -753.70774    283889.02    15.826896 
 5101000    1443.4027   -751.79188    286463.89    15.717897 
 5101500    1351.3261   -743.59866    294168.67     16.01295 
 5102000    1434.0742   -736.59201    291752.25    16.739342 
 5102500    1563.9695   -736.72873    289819.15    16.824309 
 5103000    1459.2666   -727.78369    313953.38    16.778831 
 5103500    1503.7872   -735.79304     292739.7     16.82646 
 5104000    1532.0642   -733.13475    299021.78    16.783396 
 5104500    1507.4962   -730.79891    319086.47    16.427037 
 5105000     1504.879   -744.54848     279186.1    16.785423 
 5105500    1551.0869   -738.94728    295654.16    16.461352 
 5106000    1467.0022    -720.8599    323767.81    16.975213 
 5106500    1527.2889   -740.63107    289531.36    16.474804 
 5107000    1411.5562   -732.95482    304765.81    16.640112 
 5107500    1570.1583   -728.97491    305655.31    16.653427 
 5108000    1565.1137   -733.73922    302867.73    16.828527 
 5108500     1480.682   -735.93639    290973.71    17.101344 
 5109000    1600.2315   -728.40978    322480.03     16.48584 
 5109500    1500.4649   -729.36232    311187.68    16.799869 
 5110000    1400.4204   -730.71205    295234.21    16.864935 
 5110500     1480.286   -737.53016    309415.93    16.097102 
 5111000    1474.3122    -744.0756    286461.93    16.177967 
 5111500    1471.0263   -744.26918    293043.98    16.100183 
 5112000    1592.2561   -735.29918     305791.7    16.485967 
 5112500     1464.387   -733.37386    305541.93    16.596017 
 5113000    1433.6278   -733.65313    298375.85    16.632589 
 5113500    1439.9887   -729.49241    316492.07    16.643609 
 5114000    1613.2522   -743.50756    279887.51    16.847486 
 5114500    1593.7346   -731.79406    300880.99    16.977426 
 5115000    1665.1975   -732.34844    306051.59    16.818972 
 5115500    1511.4262   -735.85169    289980.27    16.771617 
 5116000    1492.9013   -738.94408    281550.67     17.07314 
 5116500    1520.4065   -737.43234     289527.3    16.798413 
 5117000    1436.3488   -732.79606    299816.87    16.912503 
 5117500    1565.5376   -739.49522    287616.15     16.41819 
 5118000    1567.4169    -732.0014    299925.71    16.787807 
 5118500    1452.1342   -734.26283    297703.86      16.9674 
 5119000    1713.0734   -729.53614    316876.24     16.57702 
 5119500    1531.2524   -743.11479     292318.3    16.171526 
 5120000    1508.6357   -745.31394    292867.74    16.101732 
 5120500    1554.7857    -735.0345    297967.44    16.555033 
 5121000    1611.0539    -727.8678    321543.88    16.500269 
 5121500    1564.2266   -732.77724    296748.26    16.609295 
 5122000    1621.6365   -734.49341    294814.03     16.84879 
 5122500    1448.6317   -735.49414     302345.8    16.473435 
 5123000    1662.4595   -734.68096    318499.13    15.917581 
 5123500    1620.5097   -749.47463    307735.08    15.478099 
 5124000    1450.1292   -745.58837    298159.31    15.908315 
 5124500    1500.0681    -744.5049    289485.27    16.399581 
 5125000    1702.0543   -735.90951    299736.02    16.511218 
 5125500    1553.3273   -734.44951    306677.35    16.286411 
 5126000    1371.0968   -746.77944    278105.12     16.40547 
 5126500    1524.5333   -735.11496    303031.94    16.629085 
 5127000    1550.4562   -731.63748    310247.91      16.5949 
 5127500    1438.4136   -734.59767    299998.28    16.515672 
 5128000    1500.8696   -728.86245    298147.43    17.058605 
 5128500     1498.566   -734.25893    306579.04    16.314512 
 5129000    1464.2721   -736.78876     305885.1    16.080025 
 5129500    1468.6773   -744.59325     287384.9     16.34292 
 5130000    1460.5284   -727.76827    298506.06    17.021635 
 5130500    1494.6043   -732.49994    304763.37    16.839578 
 5131000     1503.562   -741.00665    290530.83    16.621503 
 5131500    1325.0494   -738.99046    288860.07    16.465057 
 5132000    1670.2231   -731.93189    292950.91     16.93491 
 5132500    1546.1861   -722.27684    325352.43    16.651273 
 5133000    1501.9718   -730.93111    299975.39    16.795702 
 5133500    1412.9969   -744.32227    287781.52    16.421116 
 5134000    1429.9638   -735.42669    298261.29    16.653112 
 5134500    1580.7331   -737.59155    307494.66    16.461247 
 5135000    1424.7276   -731.85266    307243.03     16.49923 
 5135500    1500.6434    -738.5345    280110.39    16.752834 
 5136000    1321.5389   -738.89468    299332.29    16.207094 
 5136500    1438.6095   -735.53914     314638.2    15.833129 
 5137000     1551.812   -735.71617    304472.47    16.125501 
 5137500    1413.2305   -740.67991    289035.73     16.34399 
 5138000    1489.9281   -740.15667    302300.61    16.136809 
 5138500    1515.1721   -742.98542    317481.83    15.432368 
 5139000    1337.9747   -744.46824    304338.95    15.701748 
 5139500    1583.6692   -743.58815    286466.91    16.333005 
 5140000    1502.0421   -730.84755     297685.2    16.819548 
 5140500    1500.5134    -728.5196     313902.6    16.672787 
 5141000    1632.2617   -737.88223    292552.58    16.907783 
 5141500    1462.8743   -740.01412    287663.58    16.504669 
 5142000    1476.1584   -734.26966    293351.58    16.676214 
 5142500    1614.3596   -728.64494    320204.93    16.451221 
 5143000    1369.7581   -741.68186    280784.18    16.860444 
 5143500    1452.4589   -735.74817    286464.23    16.987803 
 5144000    1514.1089   -730.38394    311595.89    16.372349 
 5144500    1501.6953   -727.16132    311021.65    16.811168 
 5145000    1537.5575   -737.55386    289095.02    16.703652 
 5145500    1443.6203   -738.62305    290583.42    16.650771 
 5146000    1584.9934   -734.06094    299115.02    16.987275 
 5146500    1452.9524   -723.57511    324359.43    16.675182 
 5147000    1520.6389   -732.77763    295150.66    17.016699 
 5147500    1379.1038   -740.96993    281291.34    16.827997 
 5148000    1519.7013   -730.89749    311147.37     16.51589 
 5148500    1450.2359   -736.80539    299749.48    16.728886 
 5149000    1375.2378   -734.51402    290837.71     16.75977 
 5149500    1481.8469   -735.17866    313481.37    16.403269 
 5150000    1504.6513   -729.44891    311126.06    16.728754 
 5150500    1550.4905   -738.45332    298970.52    16.705252 
 5151000    1645.7154   -729.81255    311341.37    16.671579 
 5151500    1466.0999   -738.26784    288448.16    16.508533 
 5152000    1530.3473   -735.16925     298206.4    16.618358 
 5152500    1367.9374   -721.99164    322080.68    16.866489 
 5153000    1495.2105   -733.92328    299772.34    16.821238 
 5153500     1436.353     -740.419    290236.03    16.393088 
 5154000    1410.8756   -739.69666    301845.58    16.157995 
 5154500    1658.2274   -734.35433    322114.47    15.978931 
 5155000    1688.5451   -737.63454    297253.87    16.692505 
 5155500     1323.296   -737.61804    288062.81    16.934904 
 5156000    1378.7496   -730.73716    299418.44    17.034209 
 5156500    1470.3654   -726.84888    313231.92    16.907172 
 5157000    1578.2855   -726.72053    312238.82    16.969057 
 5157500    1423.2683    -729.1655    313637.99    16.709806 
 5158000    1451.8593   -727.96398    317464.24    16.798165 
 5158500    1629.4543   -729.11174    308932.94    16.520754 
 5159000    1300.1036   -729.90266    298314.14    16.918147 
 5159500    1488.4533    -740.6167    309070.72     16.13479 
 5160000    1516.5108   -739.91076     301836.3    16.158541 
 5160500      1550.51   -733.66843    300511.62    16.661298 
 5161000    1644.3103   -739.14863    303631.89    15.952307 
 5161500    1462.4296   -748.99426    298416.74     15.59336 
 5162000     1410.956   -756.48792    297876.37    15.217941 
 5162500    1532.3747   -759.79715    305191.89    15.134642 
 5163000    1494.4492   -749.36283    311669.15    15.446249 
 5163500    1485.3655   -750.26929    288728.79    15.869673 
 5164000    1529.4531   -748.17622       284190    16.275597 
 5164500     1509.426   -730.02266    313814.99    16.424172 
 5165000    1456.4135   -737.41662    297609.13    16.575034 
 5165500    1568.0951   -734.94522    285169.08    16.956742 
 5166000    1468.9539   -735.02164    309162.06    16.432218 
 5166500    1474.0295    -731.3729    306639.84    16.942834 
 5167000    1549.5861   -731.41195       306377    16.685858 
 5167500    1554.4487   -738.65494    292911.61    16.567554 
 5168000    1558.3851   -725.94091    314538.41     16.81587 
 5168500    1455.5458   -732.14124    304072.96    16.509833 
 5169000    1496.5356   -731.87126    297931.33    16.763946 
 5169500    1488.1005   -725.05732     319086.3     16.77555 
 5170000    1443.3329   -730.28057    306432.15    16.567681 
 5170500    1641.4796   -741.00206    281547.88    16.899951 
 5171000    1569.3659   -736.08961    302261.99    16.758241 
 5171500    1467.3188   -731.35901    307682.85    16.642318 
 5172000    1513.0049   -736.89224    296589.51    16.648494 
 5172500     1501.952   -737.75079    282051.32    17.054371 
 5173000    1658.9393   -730.28709    309522.88    16.582835 
 5173500    1589.5198   -729.86559    312605.33    16.578655 
 5174000    1436.8786   -741.64481    282102.56      16.6209 
 5174500    1590.3331   -736.79705    296503.95     16.55736 
 5175000    1502.6559   -731.10954    311743.78    16.979823 
 5175500    1558.7456   -737.47183    301477.88    16.368396 
 5176000    1545.5731   -737.26948    294386.24    16.684188 
 5176500    1505.0214   -740.10225    291177.23     16.60281 
 5177000    1380.0732   -745.26028    276971.44    16.318951 
 5177500    1428.8218   -738.84175    304134.32    15.989666 
 5178000    1539.6647   -732.06312     302871.9     16.56573 
 5178500    1630.3384   -726.97725    308373.91    16.880288 
 5179000    1506.0406   -739.12465    292400.26    16.451907 
 5179500      1621.18    -729.5959    305910.68    17.073501 
 5180000    1463.0764   -724.74359    319627.81    16.859579 
 5180500    1571.8901   -735.76247    289661.81    16.841931 
 5181000    1645.4172   -734.13493    294354.53    16.818809 
 5181500    1479.7561   -732.80361    303906.79    16.546583 
 5182000    1388.5909   -741.12894    294588.78    16.112818 
 5182500    1465.5447    -748.8902    279022.17    16.157335 
 5183000    1431.9443   -734.69976    306313.52    16.288614 
 5183500    1515.9219   -738.13845    290785.14    16.699692 
 5184000    1587.4325   -737.47673     294790.4    16.717599 
 5184500    1614.8959   -722.79291     322169.6    16.837608 
 5185000    1530.2127   -731.88456    306558.97    16.487641 
 5185500    1441.0721   -736.18442     305946.9      16.6034 
 5186000    1416.1125   -729.38608    309284.27    16.804572 
 5186500    1515.9824   -736.51321    297799.22    16.674938 
 5187000    1548.5365   -734.17967    295581.78    16.560656 
 5187500    1392.5718   -737.90742    291318.14    16.672337 
 5188000     1632.194   -729.28437    314111.77    16.478637 
 5188500    1488.7495   -730.41398    310702.23    16.494304 
 5189000    1583.2321   -741.23634    287013.52    16.489529 
 5189500    1782.2598   -734.85079    293316.73    17.029544 
 5190000    1459.7887   -730.61259    309983.79    16.649702 
 5190500    1575.2324   -738.59529    301892.18    16.423136 
 5191000     1489.853   -730.85651    305842.26    16.968583 
 5191500     1502.101   -730.98998    311583.07    16.431436 
 5192000    1670.8551   -746.45779     275681.4    16.547214 
 5192500     1446.542   -732.81126    300197.71     16.73417 
 5193000    1515.4941   -732.26502    318264.41    16.508493 
 5193500    1501.3228    -736.9564    300322.85    16.681788 
 5194000    1460.6959   -729.23072    307878.34    16.932829 
 5194500    1536.8439   -727.11747    311002.94    16.830853 
 5195000    1421.5293    -741.7286    274993.99    16.982565 
 5195500    1578.5883   -736.46674    294591.95    16.847849 
 5196000    1483.0952   -737.25885    290868.54    17.019858 
 5196500    1471.6395   -740.55227    291847.28    16.146851 
 5197000    1507.0271   -730.53599    309700.46      16.4909 
 5197500    1357.7946   -736.10929    293903.17    16.925115 
 5198000    1439.1584   -731.85488    306037.39    16.810126 
 5198500    1494.8011   -735.48663    303704.48    16.384421 
 5199000    1524.8851   -747.15036    284897.15    16.142294 
 5199500    1515.3781   -727.76253    318701.18    16.425466 
 5200000     1497.498   -735.56444    305748.75    16.483202 
 5200500    1520.9977   -732.08157    307854.57    16.546839 
 5201000     1516.795   -739.27408    287531.88    16.745476 
 5201500    1547.8451   -730.89026     310316.8    16.489949 
 5202000    1515.9268   -729.24623    302921.46    16.527342 
 5202500    1617.6728   -732.90453       305588    16.584698 
 5203000     1586.589   -728.18229     319021.5    16.479114 
 5203500    1474.9192   -733.48934    295129.12    17.036269 
 5204000    1484.5214   -733.14606    301107.37    16.665344 
 5204500    1413.2042   -723.31303    321187.24    16.538089 
 5205000    1573.5993   -740.86744    277703.46    16.843847 
 5205500    1479.8874   -736.47838    305284.73    16.486618 
 5206000    1517.1889   -729.94449    305535.75    16.891883 
 5206500    1415.9286   -731.35149    303609.87    16.435134 
 5207000    1402.9411    -731.8042    310357.48    16.707858 
 5207500    1468.7193   -734.51484    312425.26    16.409793 
 5208000    1347.3747   -740.27296    284997.86    16.800542 
 5208500    1537.5323   -734.68925    303866.75    16.378431 
 5209000    1542.3469   -728.52902    316454.88    16.625535 
 5209500    1404.0546   -742.25816    277711.48    16.497944 
 5210000    1558.6382   -736.28727    290609.99    16.529073 
 5210500    1410.4049   -731.40726    304882.88    16.716348 
 5211000    1390.9803   -723.86915    320057.43     16.67702 
 5211500    1349.9946    -734.5941    298608.38    16.797757 
 5212000    1456.1059   -734.06757    291235.86    17.020325 
 5212500    1552.0375    -734.5725    301212.98     16.83109 
 5213000     1584.771   -727.29724     320449.5    16.728567 
 5213500    1522.3092   -734.21596    303511.96    16.262477 
 5214000     1452.636   -743.96867    288151.92    16.276766 
 5214500    1604.0744   -741.82456    308487.58    15.866668 
 5215000    1402.3707   -743.66794    316062.91    15.546855 
 5215500    1312.2403   -744.91871    294143.39    15.701427 
 5216000    1424.7612   -761.70132    276205.07    15.718803 
 5216500    1428.4214   -756.98261    277471.02    15.701195 
 5217000    1450.9865   -754.95545    285212.21    15.711523 
 5217500    1477.8263   -765.56254    291091.62    15.290126 
 5218000    1438.3531   -766.79823    291059.59    15.118239 
 5218500    1571.4027   -745.24439    307969.66    15.678723 
 5219000    1554.4221   -747.36366    305552.57    15.729431 
 5219500     1557.304   -739.34899    299075.96    15.920642 
 5220000    1549.6408   -737.31138     297221.8     16.36105 
 5220500    1563.5769   -731.99553    303850.63    16.685962 
 5221000    1514.3363   -736.48124    298081.37    16.493848 
 5221500    1512.5005   -741.99742    280230.88    16.848246 
 5222000    1562.8435   -727.93599    304094.85    16.893619 
 5222500    1576.4692   -731.88121    313181.12    16.454152 
 5223000    1437.2768   -734.94527    303972.08    16.576584 
 5223500    1512.2731   -732.34875    301994.91     16.97169 
 5224000    1554.3366   -739.14444    305094.14    16.253978 
 5224500    1431.4442   -742.33366    297412.48    16.085091 
 5225000    1507.4304   -744.59051    276112.12    16.553932 
 5225500    1538.1033   -731.76948    305457.47     16.60532 
 5226000    1457.9186   -741.42836    291063.85     16.59609 
 5226500    1436.2941   -736.52049    294196.68     16.99926 
 5227000    1500.1923   -732.78601    302437.88    16.421522 
 5227500    1404.2715   -725.44664    310044.19    16.972057 
 5228000    1358.9822   -737.56674    292893.35    16.536885 
 5228500    1419.6562   -732.31715    303821.01    16.640166 
 5229000    1421.0147   -733.45199    301704.68    16.815083 
 5229500    1530.3023   -724.29099    320291.18    16.732939 
 5230000    1342.5684   -738.68046    287767.69    16.894045 
 5230500    1486.1441   -734.14938    301717.92    16.413121 
 5231000    1384.9042   -738.96706    288275.89    16.787063 
 5231500    1515.0073   -714.84023    332414.77    16.758832 
 5232000    1593.2394   -736.34637     295351.2    16.559662 
 5232500    1441.4679   -727.71475    308698.18    16.941199 
 5233000     1482.776   -739.81534    288879.75    16.598807 
 5233500    1396.6582   -739.58513    301259.55    16.331712 
 5234000    1669.7551   -735.24025     306466.7    16.129065 
 5234500    1497.5459   -742.61733     290334.4    16.189427 
 5235000    1500.8118   -733.14282    305111.92    16.625233 
 5235500    1492.7055   -733.78933    299192.28    16.716696 
 5236000    1429.8281   -735.20899    295525.31    16.554527 
 5236500    1406.9204   -731.22905    302293.31    16.942103 
 5237000    1434.8178   -731.50216    312395.16    16.326201 
 5237500    1508.6744    -729.7127    317497.43    16.760267 
 5238000    1557.1485    -741.2869    283995.78    16.738623 
 5238500     1587.655   -725.89249    316408.84    16.836591 
 5239000    1322.7148   -735.42269    285874.93    16.974574 
 5239500    1465.7755   -737.69295    286199.23    16.943526 
 5240000    1571.3499   -735.66113    296044.65     16.80959 
 5240500    1549.9447    -736.2429     291751.3    16.628007 
 5241000     1416.844   -746.49899     273551.4    16.567712 
 5241500    1510.9414   -726.95405    319422.21    16.490859 
 5242000    1371.1205   -737.46868    298915.47    16.462189 
 5242500     1514.203   -731.60136    300923.53    16.894978 
 5243000    1515.3586   -740.96156    292977.46    16.409581 
 5243500    1473.9597   -753.06213    286990.26    15.841633 
 5244000     1564.872   -749.89187    306424.51     15.58711 
 5244500    1545.5477   -737.95102    321512.12     15.66107 
 5245000    1486.0739   -759.35945     315603.7    15.039661 
 5245500     1522.874   -757.29886    305364.32    15.080411 
 5246000    1367.7668   -766.28443    294225.15    14.999713 
 5246500    1458.5047   -760.02541    292138.81    15.481918 
 5247000    1471.0979   -767.64887    281102.47    15.406451 
 5247500    1515.3092   -768.38846    279896.01    15.049883 
 5248000    1495.9634   -759.25201    286520.44    15.474882 
 5248500    1352.6369   -743.24584    297138.38    15.951973 
 5249000    1512.1545   -739.64265    307964.52    16.023462 
 5249500    1471.5812   -724.55424    325353.65    16.212687 
 5250000    1431.0283   -739.17603    293606.18    16.368163 
 5250500    1452.1254   -745.45427    290193.61    16.127352 
 5251000    1616.0914   -757.00661    300773.67    15.314604 
 5251500    1503.9687   -747.56452     310235.8      15.4958 
 5252000    1572.3164   -749.00572    295618.33    15.735104 
 5252500    1529.4433   -755.70654    281284.67    15.747197 
 5253000     1418.251   -761.12676    300553.67    15.111623 
 5253500    1431.3085   -756.53172    309087.96    15.131272 
 5254000    1397.9661    -749.1073    322975.26    15.213394 
 5254500    1351.2881   -759.27502    303696.65    15.185194 
 5255000    1431.9855   -753.94402    287490.95    15.704458 
 5255500    1482.5375   -753.25418    281491.59    15.776403 
 5256000     1559.432   -754.69428    285104.08    15.695191 
 5256500    1538.8406   -752.71108    298589.82    15.688675 
 5257000    1421.2995   -744.34752    316350.57    15.600293 
 5257500    1628.2109   -752.88667    321790.48    15.071892 
 5258000    1440.2175   -756.93336    306431.84    15.200646 
 5258500    1647.7759   -745.57069    314517.37    15.493363 
 5259000     1519.474   -752.88852     321793.6    14.912498 
 5259500    1346.6014   -761.34859    307658.68    15.080722 
 5260000    1613.3496   -757.04899    310279.92    14.963481 
 5260500    1565.3708   -757.66184    288046.48    15.442531 
 5261000    1513.5144   -768.12228    289558.79    15.244564 
 5261500    1461.3221   -745.66582    303320.15    15.802574 
 5262000    1511.5969   -734.14794    306908.46     16.26513 
 5262500    1437.2292   -735.42356    305090.98    16.238869 
 5263000    1569.5372   -733.50083    313092.43    16.078047 
 5263500    1627.6023   -732.89544    320078.79    16.004317 
 5264000    1495.7211   -739.83709    286889.95    16.378283 
 5264500     1333.107   -734.84747    303947.34    16.268044 
 5265000    1561.8045   -741.27437    293609.95    16.656418 
 5265500    1540.1056    -737.8546    293858.51    16.883756 
 5266000    1699.0883   -730.67908    304516.26    16.891377 
 5266500    1517.0867   -733.37865    301132.28    16.706759 
 5267000     1516.236   -737.29767    293152.78    16.454296 
 5267500    1329.6412   -743.88283    276150.62    16.809708 
 5268000    1631.3919   -733.10091    309938.03    16.353357 
 5268500    1473.4607   -737.49668     299503.5    16.252992 
 5269000    1389.5797   -751.10315    285407.82    15.900663 
 5269500    1454.6752   -758.80583    279747.53    15.685124 
 5270000     1434.847   -752.43678    292693.26    15.704425 
 5270500    1623.4469   -756.38955    288877.13    15.678731 
 5271000    1600.4581   -739.54439    303404.65    16.188104 
 5271500    1622.5711   -744.42951    300501.96    16.011178 
 5272000    1514.3877    -730.0085     317352.2    16.293465 
 5272500    1573.7638   -734.05689    298767.36    16.565092 
 5273000    1567.1038   -734.90811    285931.96    17.065151 
 5273500    1424.5994   -734.04222    304375.03    16.501495 
 5274000    1671.1006   -724.07253    332102.71    16.480115 
 5274500    1507.8734    -731.9013    304414.48    16.628281 
 5275000    1522.6562   -739.94547    279286.93     16.63063 
 5275500    1494.1785   -736.40504    294393.33     16.71374 
 5276000    1457.5656   -724.75258    326997.76    16.545505 
 5276500    1450.6404   -732.34969    293662.01    16.841669 
 5277000    1381.1658   -733.56925    292727.45    17.024314 
 5277500    1500.6793   -737.36542    291802.17    16.556924 
 5278000    1512.1021   -736.38342    287810.82    17.123679 
 5278500    1485.4587   -733.87242    301474.93    16.543097 
 5279000    1541.2215   -735.50233    300736.93    16.556171 
 5279500    1438.9486   -734.15888    296678.34    16.497168 
 5280000    1623.1374   -729.42026    312153.61    16.791208 
 5280500    1474.7671   -742.61373    282222.58    16.505215 
 5281000    1377.3381   -739.25586    304915.22    16.046265 
 5281500    1563.0685   -760.27443    296481.52    15.211302 
 5282000    1493.7814   -756.24525    300544.55    15.166699 
 5282500    1565.2573   -759.34198    309267.67    15.061796 
 5283000    1515.4585   -753.37524    316951.32    15.126631 
 5283500    1478.8364   -751.48146    311676.08       15.397 
 5284000     1438.795   -758.63006    289340.88    15.419466 
 5284500    1496.2065   -768.16927    289829.33     15.10178 
 5285000    1570.5194   -762.35097    295277.72    15.359178 
 5285500    1640.5085   -768.44846    289124.66    15.152386 
 5286000    1495.9767   -753.54751    307894.68    15.163204 
 5286500    1391.4483   -756.08503       301262    15.177254 
 5287000    1389.2129   -752.47356    317290.26    14.988755 
 5287500    1587.5428    -757.6001    320689.85    14.985615 
 5288000    1464.9819   -756.00732    316032.61    15.092947 
 5288500    1407.3196    -760.3495    302993.57     14.97386 
 5289000     1533.392    -763.4614    285425.33    14.971102 
 5289500    1526.7059    -766.9218    281746.73    15.292913 
 5290000    1473.5965   -764.76349    292590.04    15.123169 
 5290500    1508.5351   -765.69521    294811.08    15.137637 
 5291000    1433.7685   -764.41968    286966.78     15.35564 
 5291500    1456.4421   -763.51062    299716.97    14.975756 
 5292000    1522.2893   -752.42785    312353.27    15.325002 
 5292500    1536.3299   -748.96372    326402.03    15.213346 
 5293000    1551.7027   -742.13296    309655.31    15.623415 
 5293500    1476.5318   -749.50767     302964.9    15.592878 
 5294000    1474.8639   -746.02102    291422.16    15.943282 
 5294500    1513.9693   -738.79427    303555.43    16.135683 
 5295000    1501.6028   -738.97652    312310.48    15.923755 
 5295500    1519.4568   -752.00313    289309.08    15.614894 
 5296000    1324.9939   -751.98024    291281.97    15.596054 
 5296500    1408.7887   -760.67505     299005.1    15.001153 
 5297000    1410.8828   -766.09988     291361.8    14.950493 
 5297500    1524.2826   -752.79878    297704.06    15.593495 
 5298000    1439.0741   -744.19158    308041.75    15.585535 
 5298500    1520.2108   -732.90812    321056.42     15.92259 
 5299000    1483.6344   -740.05161    302372.71    16.104441 
 5299500    1581.1253   -743.48329    311841.33    15.768916 
 5300000     1474.052   -747.78737    309414.16    15.446027 
 5300500     1514.743   -749.66782    286901.87     15.94792 
 5301000    1594.4635   -735.46499    294607.23    16.634152 
 5301500    1597.5826    -739.6179    300073.81    16.364213 
 5302000    1552.6434   -730.95025    314992.22    15.977829 
 5302500    1581.3826   -734.76229    321616.08    15.939937 
 5303000    1464.6566   -737.91742    291848.27    16.356981 
 5303500    1603.5295   -748.28989    286649.57    15.887346 
 5304000    1639.1267   -754.80733    310457.94    15.365372 
 5304500    1341.4207   -748.71437     334282.5    14.946824 
 5305000    1586.2576   -760.94261    305534.15    15.128104 
 5305500    1489.4186   -764.45085    292995.56    15.039726 
 5306000    1500.5084   -760.23647    284518.31     15.48324 
 5306500    1571.6066   -768.87068    290244.55    15.035565 
 5307000     1544.352   -756.19488    307752.75    15.115029 
 5307500    1492.1865   -753.54355    315724.48    15.134589 
 5308000    1566.4393   -741.42841    317104.49    15.594051 
 5308500    1475.9437   -747.59708    314505.92    15.546506 
 5309000    1507.8213   -758.04944    300177.06    15.333216 
 5309500    1537.7959   -761.46732    293887.52    15.410979 
 5310000    1612.3112   -771.30397    280733.41    15.025449 
 5310500    1487.1487   -760.62009    285367.31    15.507728 
 5311000    1548.8918   -758.35838    296162.04    15.229477 
 5311500     1554.335   -758.56016    301943.78    15.220406 
 5312000    1400.6422   -754.77927    320212.99    15.198148 
 5312500    1433.1917   -756.94543    309665.11    15.189602 
 5313000    1572.2356   -760.87376    303569.25    15.179119 
 5313500    1367.0662   -751.35662    291830.21     15.68549 
 5314000    1563.1018    -751.9708    293195.31    15.635353 
 5314500    1576.9443   -743.65178    299389.44    15.937871 
 5315000     1597.196   -736.30444    303365.76    16.409463 
 5315500     1529.403   -741.53439    282755.68    16.389361 
 5316000    1492.5194   -744.59373    294637.09    16.030284 
 5316500    1548.7992   -738.66059    290947.11    16.406311 
 5317000    1413.0291    -733.0532    300684.88    16.783338 
 5317500    1555.6951   -749.90385    282549.05    16.041634 
 5318000    1507.0435   -746.84253    293851.02    15.881055 
 5318500    1515.4894   -732.38474    316229.43    16.069581 
 5319000    1618.8812   -742.57621    292506.43    16.323272 
 5319500    1358.1483    -732.1669    293658.62    17.062088 
 5320000    1636.9648   -732.26164    305651.77     16.61589 
 5320500      1580.56   -726.62014    310909.77    16.659609 
 5321000    1432.0085   -730.02462    300558.08    16.838187 
 5321500    1497.3425    -734.3608    295315.16    16.887605 
 5322000    1644.1561   -738.75402    281954.65    17.127916 
 5322500    1358.5158   -738.28132    289197.71    17.098852 
 5323000    1584.0751   -730.30636       306289    16.834524 
 5323500    1519.7408   -724.49077    307213.02    16.900905 
 5324000     1481.949   -732.28446    309671.85    16.278538 
 5324500    1499.3837   -739.83097    302323.42    16.010282 
 5325000    1549.4248   -737.58678    293506.12    16.464123 
 5325500    1625.7011    -735.0067    302256.49    16.785621 
 5326000    1618.3215   -727.33869    323437.74    16.934882 
 5326500     1611.041   -736.47863     294650.7    16.800678 
 5327000    1441.2311   -732.21498    299104.72    16.909942 
 5327500    1600.7827    -736.7603     300678.9    16.432979 
 5328000    1476.4787   -751.92013     286689.6    15.745659 
 5328500    1504.2453   -751.37722    288357.27    15.670855 
 5329000    1477.3267   -753.41647     300098.1    15.504237 
 5329500    1570.6035   -765.47174    300909.12    15.018267 
 5330000    1477.8872   -753.20356     306920.6    15.294824 
 5330500    1422.6888   -747.27065    285682.52    15.912464 
 5331000    1525.8568   -749.94755     278198.2    16.032547 
 5331500    1407.4326   -735.22112    310125.73    16.208958 
 5332000    1436.6845   -734.14109    299440.29    16.654356 
 5332500    1595.5973   -741.19533    281767.41    16.859272 
 5333000    1547.9149   -733.31021    310641.08    16.337231 
 5333500    1481.2816   -746.22193     307778.2    15.628198 
 5334000    1420.2944   -756.90204    302057.84     15.22903 
 5334500    1615.7253   -766.75515    287716.83    15.218122 
 5335000    1505.8237   -762.55526    297083.55    15.355902 
 5335500     1365.227   -761.18912     305632.8    15.153604 
 5336000    1392.8195       -759.6    309685.76    14.956209 
 5336500    1603.4377   -753.86424    318558.53    14.981537 
 5337000    1458.1361   -753.82893    312897.97    15.083732 
 5337500    1622.4433   -764.51273    292224.63    15.165835 
 5338000    1387.7663   -765.79312    277380.61    15.445458 
 5338500    1472.0591   -761.05863    290719.93    15.275972 
 5339000    1537.8466   -761.21692    297117.66    15.184023 
 5339500     1485.672   -754.98379    303284.76    15.228776 
 5340000    1518.2016   -756.13199    320058.07    14.969942 
 5340500    1381.3496   -755.00351    318089.27     15.25062 
 5341000    1319.2888   -750.45233    308259.43    15.589108 
 5341500    1476.0614   -748.68337    298795.61    15.757271 
 5342000    1420.3775   -762.81408     296196.5    15.110591 
 5342500     1659.778   -760.19071    297321.66    15.349387 
 5343000    1519.6322   -747.07053    294228.98    15.872052 
 5343500    1422.5488   -751.01667    302002.97    15.501283 
 5344000    1534.0724   -757.22648    310803.54    14.952231 
 5344500    1377.3241   -752.58744    313269.35    15.301631 
 5345000     1372.586   -752.71123    317322.98    14.979983 
 5345500    1516.6506   -758.97776    294656.02    15.344307 
 5346000    1502.8639    -758.6796    283151.12    15.576152 
 5346500    1427.3512   -756.40745    272860.61    15.706158 
 5347000    1574.1335   -768.99171    283245.08    15.295528 
 5347500    1575.8959   -756.06793    303811.79    15.327235 
 5348000    1616.4057   -747.00871    322006.46    15.246414 
 5348500    1526.6273   -751.05826    322539.26    15.172372 
 5349000    1580.6878   -755.66096    303446.57    15.375623 
 5349500    1651.1174   -762.79735    298309.74    15.262878 
 5350000    1446.3332   -763.55941    285509.96    15.350099 
 5350500    1420.1524   -765.99991    280905.83    15.290767 
 5351000     1518.666   -769.77508    282721.51    15.237557 
 5351500    1604.7844   -757.78393    308835.78    15.048909 
 5352000    1464.3645   -751.59453    319037.07    14.944777 
 5352500    1475.7974   -752.20671       327212    15.005069 
 5353000    1335.5575   -757.79772     306051.1    15.168426 
 5353500    1412.4265   -762.54809    286035.07     15.26521 
 5354000     1537.592   -765.71013    281209.33     15.04478 
 5354500    1512.4275   -762.07098     293864.5    15.310052 
 5355000    1401.5088   -763.23188    292714.18    14.946759 
 5355500    1448.1005   -758.68253     298666.8    15.307216 
 5356000    1621.6889   -763.59554    292929.82    15.176939 
 5356500    1389.8749   -758.90421    294730.38    15.341883 
 5357000    1539.7234   -763.37851     298491.2    15.325167 
 5357500    1544.0446   -754.24762    309569.71    14.966091 
 5358000    1376.4043   -758.91007    312273.61    14.960181 
 5358500    1574.9042   -746.49715    314695.57    15.403267 
 5359000    1608.5935    -742.5094    320188.51    15.612866 
 5359500    1429.8311   -746.26593    318873.59     15.41071 
 5360000     1495.412   -762.71463    304387.42    15.146539 
 5360500    1488.8785   -766.57646    291909.26    15.167643 
 5361000    1467.0354   -765.69323    291646.55    15.333081 
 5361500    1564.8407   -762.79156    290571.45     14.97499 
 5362000    1468.6102   -765.28716    296508.11    15.131762 
 5362500    1403.7554   -761.10587    296498.47    15.366723 
 5363000    1562.0367   -766.50978    289115.95    15.294664 
 5363500    1486.1668   -768.62763    288230.69    15.162226 
 5364000    1426.7728   -755.87155    306713.03     15.36881 
 5364500    1599.1057   -763.13597    300747.78    14.938432 
 5365000    1514.6639   -753.72834    298413.72    15.482647 
 5365500    1462.0908    -764.7843     294803.9    15.123512 
 5366000    1402.2835   -764.60482    279172.87    15.426896 
 5366500    1541.8552   -749.65858    294892.02    15.719941 
 5367000    1519.0999   -744.02973    318275.92    15.530328 
 5367500    1576.8983   -743.35261    325487.33    15.409328 
 5368000    1567.3639   -744.34882    309168.48     15.68139 
 5368500    1465.5211   -753.31005     287045.3    15.669786 
 5369000     1406.441   -762.70514    276038.21    15.564007 
 5369500    1509.7147   -763.23418    286608.86    15.421021 
 5370000    1464.1561   -760.42487    296497.98    15.306471 
 5370500    1471.1195    -756.9983    309595.93    15.168751 
 5371000     1502.566   -745.37075     316867.4    15.603386 
 5371500    1522.2877   -741.52128    319088.89    15.627919 
 5372000    1469.4936   -748.72784     295992.5    15.530804 
 5372500    1444.8906   -738.66161    292448.16    16.396883 
 5373000    1480.0344   -736.03883    291712.81    16.784938 
 5373500    1471.5427   -728.08981    306631.29    16.730594 
 5374000    1469.2073    -736.3999    303478.37    16.395458 
 5374500    1485.0187   -731.70887    307061.17    16.842799 
 5375000    1507.2473   -728.20363    312322.31    16.624311 
 5375500    1513.6351     -736.215    305268.78    16.832146 
 5376000    1490.1797   -731.03445     307255.3    16.873964 
 5376500    1473.6395   -741.73613    280100.18    16.667413 
 5377000    1576.2699   -721.82827    325817.47    16.589409 
 5377500      1372.65   -737.80863    300154.06    16.431347 
 5378000    1503.9777   -737.02831    293612.03    17.029408 
 5378500    1534.5061   -728.35325    307242.33    16.601784 
 5379000    1431.1795   -729.89726    307677.74    16.463441 
 5379500    1416.4748   -737.37629     286544.7    16.704788 
 5380000    1331.7977   -738.66273    289551.18    16.504408 
 5380500    1398.9728   -729.55318    311806.38    16.501885 
 5381000    1533.2543   -730.77174    296072.52     16.93357 
 5381500    1360.8151   -742.27801    287539.08    16.421724 
 5382000    1381.1336   -739.53441    282672.89    16.758823 
 5382500    1402.9458   -734.83512    295270.45    16.818869 
 5383000     1659.195    -735.0542    313082.57    16.188577 
 5383500    1521.7271    -742.6161    297033.91    16.076704 
 5384000    1577.6946   -740.10034    292253.35    16.435663 
 5384500    1573.4155   -736.46775    291534.04    16.734668 
 5385000    1531.3313    -737.3115    292102.15    16.520205 
 5385500    1493.2124   -730.00541    314181.36    16.640899 
 5386000    1455.6974   -743.33053    274081.77    16.721325 
 5386500    1565.3869   -733.99258    302624.93    16.987948 
 5387000    1562.4308   -734.14103    293600.19    16.884132 
 5387500    1489.8339   -737.92094    294011.57    16.350205 
 5388000    1506.6274   -732.88138    316394.68    16.182939 
 5388500     1572.275   -739.73575    310752.37    16.045796 
 5389000    1385.2527   -733.52191    298169.75    16.524737 
 5389500     1526.025    -737.5566    284778.45    16.772265 
 5390000    1486.1994   -733.31344    308037.57     16.36883 
 5390500    1405.9586   -726.64497    309159.58    16.885925 
 5391000    1411.1571    -736.2535     298436.1    16.987467 
 5391500    1444.7272   -746.46133     270233.4    16.720559 
 5392000    1570.0631   -733.37784    303362.53    16.645096 
 5392500    1487.1369   -731.26266    320842.42      16.3364 
 5393000    1541.5968   -734.26176    297373.41    16.470415 
 5393500    1397.5967   -736.52014    285954.61    17.092839 
 5394000    1538.4477   -735.81074    290251.37    16.663522 
 5394500     1535.958    -740.5187    292934.71    16.519507 
 5395000    1481.2887   -734.65108    304566.69    16.512107 
 5395500    1443.7874    -727.0389    317342.39    16.602173 
 5396000    1455.8193   -725.22796    313231.81    16.688583 
 5396500    1405.6496   -735.18457    303400.25    16.542107 
 5397000     1407.545   -730.35887     304677.6     16.70389 
 5397500      1559.31   -731.82631    314004.14    16.560501 
 5398000    1411.6419   -732.93729    293499.51    17.037885 
 5398500    1453.6365   -739.93979    286977.71    16.802863 
 5399000     1675.204    -728.3812    317243.36    16.884872 
 5399500    1548.7349   -731.80128    307315.68    16.827171 
 5400000    1506.6113    -737.3347    283982.54    17.048587 
 5400500    1387.4303   -734.25497    301588.97    16.437333 
 5401000    1525.5396     -732.103    295271.02    16.796446 
 5401500    1528.1306   -732.00941    298630.89      16.9064 
 5402000      1576.84   -728.80521    315195.49     16.99217 
 5402500    1420.4787   -731.13726    305431.91    16.656165 
 5403000    1434.0908   -739.97485    283630.32    16.668734 
 5403500    1506.0321   -728.12334    316873.32    16.591901 
 5404000    1437.4083   -733.62932    301229.89    16.795296 
 5404500    1461.5853   -735.63243    297111.57    16.476869 
 5405000    1425.4157   -738.21012     284189.5    17.098185 
 5405500    1361.5192   -734.44895    298622.51    16.393291 
 5406000    1512.0289   -739.95687    290461.87    16.651546 
 5406500    1491.3302   -742.80709    299833.82    16.011145 
 5407000    1589.4005   -735.39928    307974.22    16.427951 
 5407500    1434.8418   -735.79327    299756.75    16.562136 
 5408000    1373.9863   -741.73878    286755.77    16.478696 
 5408500    1561.8309   -742.36483    297718.85    15.985158 
 5409000    1557.9341   -751.17897    314346.37    15.240791 
 5409500    1417.7166   -757.03756    310209.71    15.236927 
 5410000    1635.8856   -765.49002    299711.76    15.089014 
 5410500    1556.4934   -755.73879    284198.38    15.672221 
 5411000    1557.2778   -764.90738    293845.18    15.209429 
 5411500    1582.9258   -763.23661    302172.74    15.128002 
 5412000    1412.3821   -756.49697     307422.4    15.198077 
 5412500    1567.6787   -756.84131    300940.57    15.465221 
 5413000    1619.6873   -755.75088    291089.62    15.564223 
 5413500    1551.9954   -769.69192    284996.45    15.037164 
 5414000    1540.8389   -764.41747    291047.94    15.360787 
 5414500    1544.0364   -763.54774     294336.8    15.107037 
 5415000    1565.6282    -758.8055    302606.19    15.295303 
 5415500    1408.3794   -759.84329    308684.05    15.235489 
 5416000    1506.4887   -751.37797    313310.05    15.230603 
 5416500    1630.0473   -749.21173    321790.05    15.435514 
 5417000    1485.2661    -761.8863    301237.43    15.242067 
 5417500    1515.2519   -758.02959    294054.72    15.325572 
 5418000     1494.256    -763.2517    288756.98    15.282255 
 5418500    1419.1962   -749.52745    287806.49    15.803499 
 5419000    1488.9868   -741.23408    294439.26     16.06364 
 5419500    1500.4087   -733.39168    297966.12    16.729612 
 5420000    1480.8457   -736.93469    295202.17      16.6144 
 5420500     1618.326   -745.41335    298688.65    16.045783 
 5421000     1653.117    -742.8674    306613.17    15.715776 
 5421500    1495.4398   -764.60364    300183.86    15.000354 
 5422000     1610.611   -759.38078    296319.47     15.27455 
 5422500    1514.4253    -748.5636    296327.66    15.635865 
 5423000    1511.9263   -763.50593    289249.44    15.319825 
 5423500    1427.7832   -765.66224    287588.32    15.090484 
 5424000    1381.0861   -759.27072    300769.87    15.158556 
 5424500    1564.6116   -752.83044    308549.33    15.357659 
 5425000    1490.8209   -759.62763    311419.18    15.023102 
 5425500    1498.3049   -757.85779    304480.28    15.028238 
 5426000    1413.8219   -759.74126    307373.12    15.085165 
 5426500    1481.5127    -767.6893    293741.52    15.079004 
 5427000    1392.4139   -764.17037    291085.94    15.176202 
 5427500    1450.2992   -766.49615    283073.26    15.467658 
 5428000    1450.0277    -771.1189    273515.65    15.093806 
 5428500    1556.7827   -761.95474    290320.83    15.378053 
 5429000     1532.476    -760.0732    303061.34    15.262204 
 5429500    1596.3881    -747.3303    323631.02    15.305091 
 5430000    1372.2037   -747.38726     319001.1    15.214759 
 5430500    1541.4067   -744.11116    310409.61    15.413909 
 5431000    1489.0037   -746.74314    299092.58    15.752954 
 5431500    1509.4545   -759.69167    290113.02    15.302253 
 5432000    1555.9997   -769.16656    283500.31    15.229661 
 5432500     1444.332   -766.66955    285895.65     15.14454 
 5433000    1582.7093   -772.64793    281795.75    15.083435 
 5433500    1551.1684    -762.2784    306283.41     15.00645 
 5434000    1562.2743   -754.29759    318391.84    15.033201 
 5434500    1586.8959   -754.74955    316829.42    15.176885 
 5435000    1563.7805   -754.76723    317947.45    14.958058 
 5435500    1495.3184   -765.54939    294604.48    15.031225 
 5436000    1568.0435   -764.19119    282786.43    15.300471 
 5436500    1567.7731   -767.25891    279005.94    15.406512 
 5437000    1548.9304   -761.44875    294556.88     15.12386 
 5437500    1426.5667   -761.51622    307742.11    14.995026 
 5438000    1404.2526   -758.39329    305581.72    15.337989 
 5438500    1446.8425   -755.44129    307794.29    14.954036 
 5439000    1518.5111   -750.43489    300166.93    15.624564 
 5439500    1458.1719    -741.6771    307935.77    15.692548 
 5440000    1460.7525   -750.14762    302533.85    15.634238 
 5440500    1447.6044   -760.96142     279910.3    15.608762 
 5441000    1411.1721   -763.58845    282878.46    15.338391 
 5441500    1557.4272   -764.63964    290187.92    15.275872 
 5442000    1463.0553   -755.91552    305484.18    15.330369 
 5442500    1536.0471   -754.92586    318632.09    15.056418 
 5443000    1597.1398   -758.25107    304188.39    15.310009 
 5443500    1584.7591   -757.24539    312378.55    15.227922 
 5444000    1388.1836   -763.76314    296489.18     15.19639 
 5444500    1471.7588   -761.36568    285677.87    15.313922 
 5445000    1587.5501   -763.39585    292540.79    15.125284 
 5445500    1484.1322    -761.5616    300285.29    15.151216 
 5446000    1543.6512   -752.52125    319098.05    15.230528 
 5446500    1560.2937   -753.96288    316846.19    15.084681 
 5447000     1504.926   -757.06143    313402.04    15.007746 
 5447500    1522.4972   -760.08821    300707.92    15.162586 
 5448000      1512.68   -770.76547    279976.38    15.170118 
 5448500     1553.405   -774.09502    274267.23    15.084319 
 5449000    1515.1014   -769.09684    283477.67    15.183049 
 5449500    1505.4245   -761.87594       300665    15.124386 
 5450000    1397.9485   -755.70592    302749.49    15.347445 
 5450500    1402.7401   -739.09785    298250.27    16.067635 
 5451000    1403.8011   -733.28231    305776.91    16.565886 
 5451500    1566.0713   -729.15003    306266.45    16.859592 
 5452000    1435.6838   -735.48206    293055.02    16.747307 
 5452500    1559.3888   -735.20475    309069.64    16.352662 
 5453000     1539.492   -729.92364    307686.86    16.955707 
 5453500    1480.8025   -733.81191    308514.07    16.595859 
 5454000    1599.6176   -737.87008    294256.16    16.693399 
 5454500    1474.3414   -729.69691    302764.18    16.801244 
 5455000    1565.3891   -740.08349    291010.76    16.389504 
 5455500    1498.1011   -729.62012    302239.47    16.945587 
 5456000    1374.8984   -737.95025    302947.76    16.307128 
 5456500    1423.2952   -734.62175    293660.66     16.69122 
 5457000    1400.2485   -737.62197    296144.67    16.355809 
 5457500    1526.9398   -731.97338    306541.45    16.864848 
 5458000    1482.9283   -734.92359    313970.21    16.232785 
 5458500    1504.7853   -737.53859     301481.6    16.135799 
 5459000    1561.5142   -739.19685    294758.67    16.279604 
 5459500    1567.5693   -727.88762    309316.53    16.789071 
 5460000    1467.6758   -723.32445     324387.6    16.489818 
 5460500    1697.3293   -738.40087    286183.07    16.841058 
 5461000    1500.1401   -739.86305    291090.21    16.443965 
 5461500    1536.9765   -729.36677    314988.47     16.41722 
 5462000    1519.0185   -729.25577    310781.75    16.538239 
 5462500    1436.2912    -740.3714    283774.54    16.817621 
 5463000    1469.7913   -738.78648    282242.63    17.012664 
 5463500    1538.7089   -736.43465     290251.2    16.895744 
 5464000    1647.9287   -731.68964    313679.44    16.952923 
 5464500    1587.7729   -735.65062    291256.33    17.167171 
 5465000    1500.7822   -737.17424     287102.3    16.963069 
 5465500    1535.8496   -727.07755    317677.85    16.613074 
 5466000     1386.562    -728.8882    308375.97    16.622206 
 5466500    1517.0407   -733.85521    292364.04    16.920451 
 5467000    1415.5153   -736.97809    295593.75    16.727981 
 5467500    1434.0739   -732.46258    299494.38    16.901248 
 5468000    1417.7977   -730.49215    317192.58    16.471741 
 5468500    1554.0518   -730.70177    315513.09    16.640039 
 5469000    1457.5625   -743.29865    280888.92    16.566338 
 5469500    1448.8106   -734.33952    303422.38    16.824707 
 5470000     1451.064   -724.42517    323076.67    16.846807 
 5470500    1602.8038   -736.25114     296551.1    16.503557 
 5471000    1576.5992   -731.73626    308517.73    16.982033 
 5471500     1567.122   -739.29401    289716.92    17.024244 
 5472000    1510.5036   -730.16381    314059.46    16.484042 
 5472500    1405.7717   -736.78217    308403.47    16.038816 
 5473000    1515.1951   -732.90556     311593.6    16.195766 
 5473500    1522.8261   -745.61189    281720.52    16.291821 
 5474000     1528.123    -740.0476    306316.14    15.934515 
 5474500    1534.7816    -753.1602    319319.06    15.290593 
 5475000    1587.7393   -750.96811     304103.5    15.486475 
 5475500    1269.6376   -747.90181    296910.73    15.626129 
 5476000    1429.9018   -767.77247    292772.65    15.082848 
 5476500    1623.3932    -770.0394    291318.54     15.17868 
 5477000    1511.3738   -758.84732    302507.95    15.170732 
 5477500    1565.1068   -743.53337    311160.96    15.500096 
 5478000     1524.989   -742.54015     316227.3    15.675585 
 5478500    1385.3156   -751.15572    305810.19    15.419227 
 5479000    1456.4155   -758.49972    304637.32    15.032768 
 5479500    1537.7702   -766.06511    283427.18    15.078758 
 5480000    1466.8088   -765.81077    281973.04    15.334459 
 5480500    1467.4765   -759.38274    300479.78    15.239466 
 5481000    1414.4311   -746.37291    323608.49    15.355966 
 5481500    1458.4418   -751.65574    325226.54    15.148402 
 5482000    1451.3391    -753.2139    318727.06    15.086181 
 5482500    1406.5558   -758.61297    302155.21    15.191796 
 5483000    1599.5275   -751.69479    298314.77    15.485072 
 5483500     1574.873   -749.12309    289624.72    16.005213 
 5484000    1603.8943   -738.79984    306119.17     16.09283 
 5484500    1375.7658    -751.9439    304765.08    15.352012 
 5485000     1477.199   -758.67565    309651.18    14.967918 
 5485500    1514.3396   -750.89711    309705.72    15.491103 
 5486000    1497.9159   -746.63364       300795    15.667747 
 5486500    1472.9507   -763.99072    281765.48    15.201031 
 5487000     1408.282   -761.69754    296570.25     15.24893 
 5487500    1454.1975   -759.88981    298342.72     15.21719 
 5488000     1570.109   -749.07788    313956.77    15.406114 
 5488500    1478.2686   -741.68908    325975.62    15.361726 
 5489000    1467.2579   -748.85335    299594.84    15.612739 
 5489500    1453.9431   -754.83024    294635.14    15.558576 
 5490000    1386.7638   -753.22742    287137.37    15.785031 
 5490500    1622.4212   -750.10577    300119.45     15.73645 
 5491000    1380.7578   -745.67404    321263.46    15.487224 
 5491500    1502.8321   -747.49447    321909.15    15.329551 
 5492000     1527.064   -761.74379    306959.28    15.036596 
 5492500    1638.6556   -758.77574    315048.97    15.131194 
 5493000    1588.4128   -753.00303    325197.59    14.942303 
 5493500     1569.926   -752.75032    306965.79    15.312113 
 5494000    1335.1301   -754.72716    299074.27     15.34631 
 5494500    1456.8717    -764.3866    283231.86    15.401263 
 5495000    1454.5479   -769.37863    280493.36    15.190015 
 5495500    1485.9185   -768.87558    284417.77    15.093091 
 5496000    1431.5231   -764.36516    296416.78    15.124175 
 5496500    1522.1652    -748.7919    311506.22    15.410812 
 5497000    1590.8913   -759.46172    311782.55    15.048183 
 5497500    1441.0726   -758.95788    314148.31    15.020486 
 5498000    1580.7747   -751.98001    309112.61    15.386331 
 5498500    1471.8766   -761.87145     301846.5    15.016417 
 5499000    1536.7144   -756.62816    295528.95    15.472401 
 5499500     1542.424   -755.80086    291932.08    15.602897 
 5500000    1580.5672   -762.37558    286202.38    15.276982 
 5500500     1493.244   -766.22576    290968.34    15.250055 
 5501000    1426.5869   -763.67166    293182.69    15.281016 
 5501500    1514.2961   -758.95854    310777.95    15.042454 
 5502000    1598.7928    -755.9381    318150.55    15.085202 
 5502500    1637.8277   -757.27627     315498.2    15.023585 
 5503000    1480.1547   -760.45468    307510.88    15.106177 
 5503500    1556.7015   -760.96985    294282.95     15.30881 
 5504000    1608.3328    -765.4229    291190.33    15.303123 
 5504500    1363.4529   -762.66922    290632.25     15.25148 
 5505000    1579.3467   -771.95396    287031.82    15.149354 
 5505500    1537.2136   -759.56472    293944.06    15.427885 
 5506000    1597.1064   -759.97002    303235.52    15.075849 
 5506500    1500.6207   -756.58757    316482.07    15.047606 
 5507000    1469.6738   -747.60267    321119.25    15.345521 
 5507500    1423.5717   -751.29228    313539.68    15.210853 
 5508000    1425.8983   -756.55575    301191.56    15.412891 
 5508500    1440.6971     -760.836    297118.53    15.221543 
 5509000    1595.6156   -761.39694    289299.56    15.295098 
 5509500    1480.1598   -756.04921    290804.65     15.44185 
 5510000    1432.3134   -747.17546    298603.16    15.664496 
 5510500    1483.4354   -744.64868    316856.95    15.511867 
 5511000    1464.5799   -739.71133    307245.94    15.905707 
 5511500    1493.7782   -753.87764     297587.6    15.425296 
 5512000    1410.2589   -759.54847    293212.75    15.419909 
 5512500    1415.6184   -738.58279    297670.89    16.158534 
 5513000    1417.3337   -737.00961    309735.19    15.968364 
 5513500    1508.0481   -737.92043    319994.96    15.718043 
 5514000    1440.0554   -763.23418    299522.14    15.118135 
 5514500    1421.8178   -766.50788    289130.55    15.169503 
 5515000    1545.0801   -758.40758    292613.34    15.370045 
 5515500    1600.6679   -759.85349    302619.38    15.037017 
 5516000    1394.2153   -758.64786    312548.65    14.964603 
 5516500    1453.9614   -753.24147    322339.56    15.053529 
 5517000    1733.0026    -759.1324    307428.02    15.315781 
 5517500    1451.5766   -761.18709    296062.56    15.077964 
 5518000    1475.3481   -768.56785    280310.35    15.238018 
 5518500    1584.5664   -764.75759    281128.56    15.455631 
 5519000    1457.6081   -767.76839    289214.33    15.035583 
 5519500    1416.2254   -759.23243    309242.97    15.019806 
 5520000    1536.2751   -759.55248    305800.91    14.961843 
 5520500    1442.1253   -752.77773     306724.1    15.333229 
 5521000    1628.8823   -750.57943     307552.3    15.484845 
 5521500    1451.1089    -749.7559    300457.44    15.578874 
 5522000    1266.9433   -765.32053    284432.57    15.187923 
 5522500    1433.5703   -761.26091    289876.38    15.411651 
 5523000    1429.4515   -770.06735    277722.01    15.056691 
 5523500    1434.4456   -759.41923    293267.95    15.419637 
 5524000    1464.8143   -759.55313    300664.54    15.193756 
 5524500    1465.4242   -754.29635    293820.53    15.661417 
 5525000    1502.3638   -736.89167    307931.52    16.303677 
 5525500    1487.4141   -733.59189    296477.58    16.918286 
 5526000     1406.625   -727.65565    313449.65    16.523378 
 5526500    1513.8094   -725.53089    313389.73    16.658138 
 5527000    1475.7164   -732.21812    299598.26    16.806829 
 5527500    1495.7264   -731.75451    301613.79     16.99873 
 5528000    1512.5614   -734.68793    315936.51    16.212015 
 5528500    1460.9417   -741.54173    289976.51      16.3156 
 5529000    1496.9813   -723.68321    317321.76    16.706007 
 5529500    1595.2864   -731.21399    307625.47    16.671045 
 5530000    1351.7597     -742.293    284415.38    16.657142 
 5530500     1447.598    -735.5309    292627.15    16.784226 
 5531000    1509.8769   -722.81591    320807.12    16.796191 
 5531500    1521.7645   -733.55158    304008.89    16.442959 
 5532000    1643.7526   -745.45666    288286.62    16.331788 
 5532500    1391.3106    -744.5495    298034.66    15.987751 
 5533000    1758.3114   -736.81154    313406.73    16.094084 
 5533500    1492.9667   -741.08854    313942.83    15.875007 
 5534000    1465.9927   -748.66408    304744.43    15.481972 
 5534500    1517.6646   -762.12413    291332.13    15.161059 
 5535000    1550.4223   -768.19136    281734.13    15.257308 
 5535500    1699.0675   -767.88352    284773.63    15.274135 
 5536000    1509.3391   -761.10469    303108.98    15.099797 
 5536500    1295.0587    -756.0403    309727.49    14.964241 
 5537000    1433.9263   -756.06807    312348.07     15.15292 
 5537500    1607.6258   -741.75822    327836.74    15.477473 
 5538000    1545.5286   -748.52951    307881.87    15.469351 
 5538500      1377.33   -763.19238    295326.48    15.247526 
 5539000    1598.8325   -763.14196    287187.32    15.460334 
 5539500    1428.8047   -770.72183    277711.82    15.289884 
 5540000     1475.586   -760.62232    286594.77    15.447199 
 5540500    1710.4478   -760.24235    302322.49    15.248102 
 5541000    1368.3407   -750.89861    319971.71    15.201139 
 5541500    1541.1232   -748.13285    331564.59    15.239515 
 5542000    1408.4691   -753.00255     314927.3    15.112306 
 5542500    1512.6308   -762.41112     301005.1    15.097683 
 5543000    1470.3642   -761.84793    280421.07    15.436649 
 5543500    1558.5187   -767.03277    288665.25    15.108457 
 5544000    1543.4689   -768.73926     291561.8    15.006888 
 5544500    1524.1821   -757.25815    294475.36    15.443465 
 5545000    1570.0777    -762.3432    293790.31    15.020306 
 5545500    1514.9295   -750.73101     299272.6    15.541948 
 5546000     1502.263   -737.38614     303264.5     16.21667 
 5546500      1492.58   -735.59738    300996.44    16.414363 
 5547000    1460.5144   -738.43055    290427.43     16.86691 
 5547500    1598.5849   -731.82855    311350.39    16.268039 
 5548000    1533.3313   -740.33937    302300.26    16.088283 
 5548500    1504.5915   -744.51057    287150.36    16.273205 
 5549000    1363.5809   -743.19733    291506.46    16.217757 
 5549500    1588.9175   -739.96366    304100.32    16.004709 
 5550000     1531.408   -730.61998    310382.92    16.356059 
 5550500    1438.7078   -736.06347    293473.97    16.891105 
 5551000    1437.2536   -733.25369    309633.09    16.379907 
 5551500         1552   -745.15045    300801.56    15.773098 
 5552000    1554.0566   -749.10438    289144.04    15.778382 
 5552500    1502.2282   -755.94836    292985.26    15.572832 
 5553000    1512.0891   -758.38317    307556.82    14.972989 
 5553500    1469.2021   -756.01535     302557.6    15.352438 
 5554000    1525.3571   -755.04606    306828.02     15.28186 
 5554500    1632.0151   -753.13022    327398.83    15.026181 
 5555000    1404.7458   -752.36322    312857.51    15.290042 
 5555500    1557.5799   -763.51085    298780.25    14.976732 
 5556000    1579.7795   -765.54987    285735.58    15.306092 
 5556500    1482.3121   -758.77588    302357.95    15.219837 
 5557000     1480.001   -742.90779    299859.68    15.949187 
 5557500     1505.125   -743.26639    287599.74    16.163454 
 5558000    1350.6436   -747.96794    308848.22    15.475938 
 5558500    1641.0957   -757.27658    306492.97    15.174292 
 5559000     1490.483   -756.37636    303348.34    15.217846 
 5559500    1581.8478   -755.70444    308272.99    15.254276 
 5560000    1656.4488     -750.418    318530.62    15.269306 
 5560500    1441.7111   -748.13191    309014.58    15.496679 
 5561000    1548.3805   -761.28703    292882.07    15.137671 
 5561500    1563.5285   -761.29038    297092.18    15.139511 
 5562000    1490.9532   -749.56144    291884.18    15.724128 
 5562500    1454.3299   -761.36663    280562.78    15.527487 
 5563000     1458.671    -765.3677    290900.67     15.17316 
 5563500    1468.5828   -756.34069     303253.3    15.304801 
 5564000    1487.4716   -765.17665    293727.82     15.13956 
 5564500    1460.3812    -751.5378    299784.68    15.494746 
 5565000    1509.4412   -758.04483    312024.79    14.939351 
 5565500    1643.7109   -756.33904    308228.41    15.331355 
 5566000    1414.0263   -760.88654    304283.47    15.037088 
 5566500    1536.6618   -760.61435    298858.75    15.304773 
 5567000    1453.3657    -755.7645    298699.46    15.408387 
 5567500    1472.1612   -774.77789     275626.9    15.106028 
 5568000    1621.0865   -758.15506    289602.97    15.447237 
 5568500      1449.04   -743.96243    294017.87    15.932928 
 5569000    1380.7686   -738.58078    293868.84    16.325375 
 5569500    1687.8898   -728.33185    308287.39     16.86141 
 5570000    1385.7561   -728.30248    316697.77    16.566794 
 5570500    1460.8426   -734.66508    292623.13    16.745264 
 5571000    1476.9492   -740.30509     284214.3    17.058227 
 5571500    1522.3094   -735.45092     300973.1    16.370427 
 5572000    1422.0153   -742.73211    272447.29     16.66814 
 5572500    1620.9793    -737.5236    299924.58      16.5835 
 5573000    1444.0648   -727.19537    325006.67    16.345129 
 5573500    1446.8938   -740.18801    297566.14    16.422937 
 5574000    1440.5835   -732.34833     305427.2    16.636617 
 5574500    1488.6633   -739.91286    284306.98    16.579581 
 5575000    1418.3612   -737.92507    288672.15    16.721223 
 5575500    1470.9095   -733.17544    312780.49    16.473063 
 5576000    1609.1312   -733.11984    295586.92    16.996796 
 5576500    1404.8423   -737.80927    293640.09    16.752948 
 5577000    1429.7613    -731.1542    309224.35    17.001279 
 5577500    1570.7233   -731.06157    314905.47      16.6268 
 5578000     1303.639   -740.56046    275517.89    16.999303 
 5578500     1484.749   -734.34801    297145.85    16.760841 
 5579000    1376.3487   -727.98411    308814.34    16.885097 
 5579500    1482.4936   -735.69139    292668.37    16.924434 
 5580000    1633.1163   -732.82818    313738.47    16.515841 
 5580500    1516.2026   -734.90259    304302.71    16.410164 
 5581000    1531.3692   -735.44727    289510.59    16.874724 
 5581500    1655.5064   -730.27137    314772.46    16.364128 
 5582000    1508.8291   -729.99004    311617.97    16.637971 
 5582500     1462.221   -733.12455    300025.77    16.754415 
 5583000    1515.3955   -744.51841    272141.16    16.911311 
 5583500    1504.0227   -719.96238    322635.92    16.918732 
 5584000    1431.9136   -729.99338    304360.52    16.879052 
 5584500    1547.5211   -738.23038    283780.46    17.129276 
 5585000     1333.246   -740.06226    280330.12    16.668824 
 5585500    1489.9482    -728.4155    313114.71    16.856308 
 5586000    1503.5147   -729.89866    304911.02    16.609822 
 5586500    1509.3025   -734.65097    297786.87      16.7171 
 5587000    1538.6837   -732.64176     295259.7    16.770896 
 5587500    1648.1423   -731.93877     301808.7    16.903158 
 5588000    1563.2682   -737.06779    288280.31    16.983708 
 5588500    1547.2496   -730.21814    311971.89     16.85774 
 5589000    1363.5945   -729.06972     313944.2    16.650342 
 5589500    1502.8314   -740.85619    286710.55    16.447068 
 5590000     1432.955   -740.84701    289698.93    16.108204 
 5590500    1410.7637   -747.20225    301357.68    15.586135 
 5591000    1667.6379   -735.29019    311577.49    16.277338 
 5591500    1508.4368   -733.52056    311211.49    15.990025 
 5592000     1504.114   -748.05746    307432.04    15.487515 
 5592500    1494.1963   -745.17374    292252.06    15.991815 
 5593000    1698.7169   -746.92077    289486.49    16.105438 
 5593500    1632.8698   -732.50735    313598.51    16.146882 
 5594000    1285.6137   -736.76717     302289.1    16.095413 
 5594500    1460.8047   -749.56195    278628.43     16.39398 
 5595000    1537.2843   -732.52877    304920.83    16.804648 
 5595500    1546.2504   -737.96211    290648.69    16.481767 
 5596000    1497.4727   -728.59698    303241.11    16.939703 
 5596500    1595.4797   -733.01093    301460.58    16.506472 
 5597000     1441.463    -735.9745    306060.99    16.444163 
 5597500    1370.0139   -736.27886    300376.34    16.209945 
 5598000    1369.5207   -752.84741    301750.04    15.353385 
 5598500    1552.4466   -761.58085    301390.17    15.137347 
 5599000    1455.7071   -750.72513    296573.67    15.661696 
 5599500    1489.7528   -737.29235    295942.16    16.289003 
 5600000    1506.3312   -757.81406    293769.18    15.468984 
 5600500    1468.7771   -759.89463    301379.03    15.283219 
 5601000    1559.4349   -754.46273    310400.41    15.307902 
 5601500    1436.0617   -753.00504    312779.83    14.880036 
 5602000    1544.3537   -758.25765    299322.77    15.322758 
 5602500    1554.1683   -764.44273    298607.92    15.172318 
 5603000    1488.7832    -762.0546    294480.63    15.392105 
 5603500    1554.2587   -763.01042    295217.72    15.198941 
 5604000    1548.5818   -761.59768    297751.05    15.280668 
 5604500    1485.0186   -747.42986    307281.36    15.457089 
 5605000      1633.58   -749.69862    320240.43    15.149936 
 5605500    1460.3099   -741.89993    322369.95    15.453642 
 5606000    1654.5617    -739.3655    300044.68    16.215278 
 5606500    1602.8067   -741.50163    299781.73    16.048131 
 5607000    1563.3139   -745.08707    299966.45    15.792818 
 5607500    1534.9895   -759.53017    289509.29    15.446059 
 5608000    1287.2401   -762.07552    285853.41    15.142372 
 5608500    1370.5884   -769.72484    288692.59    15.160253 
 5609000     1522.772   -767.76759    283445.64    15.086322 
 5609500    1644.6885   -759.75177    304553.12    15.073602 
 5610000    1529.7257   -755.55013    320082.36    15.022101 
 5610500    1495.9042   -761.67294    311579.85    14.991701 
 5611000    1417.2208   -747.14469    315362.84    15.361459 
 5611500    1515.1617   -758.45133    318728.41    14.946886 
 5612000     1550.761   -761.84358     302126.7    15.195764 
 5612500    1500.3069   -766.49921    294139.45    15.079134 
 5613000    1434.2477   -775.15009    272929.44    15.237907 
 5613500    1396.0521   -769.90688    284847.53    15.211428 
 5614000    1384.3714   -763.94645     294220.3    15.161881 
 5614500    1515.0072   -765.96431    294737.87    15.021509 
 5615000    1573.9764   -761.72771    298311.05    15.115039 
 5615500    1323.7347   -760.43722    309390.01     15.07244 
 5616000    1299.8181   -761.99096    303262.66    15.043416 
 5616500    1560.6512   -763.79818    295521.88     15.39367 
 5617000    1332.6618    -770.7154     281732.3    15.132771 
 5617500    1422.8531   -767.53653    283552.82    15.255651 
 5618000     1513.729   -766.71903    292506.97     15.08912 
[...]
24848000    1487.5973    -733.0743    318222.49    15.938333 
24848500    1551.4788   -735.45225    306472.22    16.343956 
24849000     1440.537   -738.23481     289957.2    16.867667 
24849500    1439.3666   -732.03363    303454.07    16.776406 
24850000     1499.998    -726.1979    323425.92    16.965133 
24850500    1381.4259   -733.41115    307132.53    16.608994 
24851000    1424.7069   -738.37069    283168.91    17.059512 
24851500    1390.5399   -732.96926    291910.61    17.003034 
24852000    1383.2621   -723.21546    325293.47    16.466783 
24852500    1567.4446   -733.81963    301085.19    16.592867 
24853000    1440.5411   -734.49252     305014.9    16.635624 
24853500    1373.3658   -746.42492    285985.81     16.23032 
24854000     1583.103   -740.45292    295689.55    16.146209 
24854500    1442.0485   -732.70437    305260.92    16.625543 
24855000    1486.7289    -732.6181    302936.87    16.996558 
24855500    1572.6046   -741.36028    287053.86    16.504874 
24856000    1549.4606   -733.07443    302137.25    16.685617 
24856500     1531.597   -736.26717     306842.9    16.288391 
24857000    1456.5332   -742.19664    289458.17    16.101961 
24857500    1544.1276   -734.34678    293543.27    16.664698 
24858000    1450.5602   -731.39766    297089.52    16.898061 
24858500    1546.6304   -731.80649    310171.04    16.605435 
24859000    1472.0367   -731.11704    311450.06    16.841538 
24859500    1433.2128   -742.88409    278833.69    16.934613 
24860000    1495.1352   -730.18835    308270.59    16.881618 
24860500    1610.2241   -725.61129    321142.88    16.761918 
24861000     1467.648   -735.76079    296385.71    16.784349 
24861500    1646.0547   -737.20615    294654.98    16.802338 
24862000    1527.9331   -723.73491    324990.28    16.755784 
24862500    1605.0876   -730.18103    313981.04    16.877374 
24863000    1638.6393    -734.5009    300187.72    16.978509 
24863500    1475.9536   -735.93492    295927.97    16.870008 
24864000     1529.054   -728.67866    299915.56    17.009487 
24864500    1516.3145   -734.81388    303392.72    16.400437 
24865000    1556.5325   -731.15759    295450.79    16.993055 
24865500    1671.2415   -732.33373    299021.31     16.79206 
24866000    1550.2361   -737.43936    305587.93    16.181232 
24866500    1410.7822   -745.93042    306629.97    15.547288 
24867000    1479.9058    -765.0988    296889.49    15.094385 
24867500      1510.05   -762.05311    285497.43    15.436391 
24868000    1542.5901   -768.92199    287231.48    15.178208 
24868500    1443.6985   -754.59668    303246.53    15.307484 
24869000    1582.7119   -745.38122    318841.18    15.627919 
24869500    1448.3398   -745.20567    314507.36    15.554867 
24870000    1512.7467   -743.17877    305323.64    15.758849 
24870500    1463.8947     -744.097    286391.62    16.218027 
24871000    1650.0206   -737.34016    301653.82    16.512445 
24871500    1635.9304   -736.06219    298707.41    16.528738 
24872000    1568.6039   -746.12868    283148.68    16.194359 
24872500    1451.8664   -729.90499    312112.55    16.346984 
24873000    1573.7999   -728.72489    305140.63    16.919878 
24873500    1519.5717   -728.77437    309795.56    16.901044 
24874000    1503.1164   -732.90096    296756.74      17.0606 
24874500    1328.6368   -733.29857     297744.3    16.552801 
24875000    1627.1723    -730.6321    304259.29    16.859663 
24875500    1587.5539   -735.45004    301390.57    16.853236 
24876000    1449.8071   -732.37556    302064.51    16.616875 
24876500    1576.2004   -731.81724     300041.4    16.938719 
24877000    1520.1021    -736.0961     297081.9    16.479683 
24877500    1505.7056   -736.57462    294477.07    16.697709 
24878000    1486.4134   -726.04771    315580.67    16.617608 
24878500    1665.6473   -740.16621    283003.06    16.651021 
24879000     1479.608   -739.33038    289903.58    16.742605 
24879500    1580.7259   -727.08475    316663.13    16.471897 
24880000    1451.8996   -729.56497    315358.18    16.534397 
24880500     1462.705   -741.60673    288281.48    16.485725 
24881000    1510.6315    -737.8298    289310.38    17.004197 
24881500    1525.8188   -730.30005    302535.19    16.539639 
24882000    1407.4228   -729.16961    313522.59     16.66571 
24882500    1544.6733   -735.98485    299750.28    16.958378 
24883000    1446.3547   -734.80455    303503.03    16.526433 
24883500    1532.2682    -720.8149    328846.25    16.737334 
24884000    1347.1169   -733.55704     298356.6    16.569201 
24884500    1606.5327   -744.96687    280802.02    16.686449 
24885000    1646.4068   -734.97864    295773.02    16.902112 
24885500    1529.2709   -734.91306    309068.05    16.327697 
24886000    1456.6204    -734.0957    294551.49    16.669247 
24886500    1527.2026   -732.61959    302213.72     16.88827 
24887000    1452.3968    -728.9852       316887    16.445249 
24887500     1472.024   -735.01442    297005.96    16.907593 
24888000    1466.3321   -734.00697    292913.82     17.07239 
24888500    1461.5802    -738.4747    288537.33    16.830428 
24889000    1471.4632   -740.37199    285898.64    17.118834 
24889500    1445.0477   -725.29083    320711.43    16.723421 
24890000    1528.1839   -730.12062    300993.22    16.916091 
24890500    1415.1083   -738.79923     283547.1    17.004881 
24891000    1635.6551   -728.48713    319369.92    16.716507 
24891500    1439.0115   -727.27532    309742.01    17.025381 
24892000    1462.6889    -739.5137    288283.17    17.082523 
24892500    1360.7401   -738.31711    287170.43     16.85001 
24893000    1460.4257   -730.12203    307893.85    16.723508 
24893500    1475.3247   -735.94077    302216.42    16.344604 
24894000    1462.0294   -725.77078    309181.87    16.872391 
24894500    1505.0583    -740.9024    282756.99    16.376839 
24895000    1450.7205     -743.413    284888.06    16.358399 
24895500    1583.5796   -734.87062    300963.58    16.646436 
24896000    1489.2518   -733.55968    302820.03    16.645722 
24896500    1471.8904   -734.02349    314596.49    15.974569 
24897000    1513.5882   -743.11441    304642.45    15.893191 
24897500    1584.0223   -734.68609     299507.9    16.456567 
24898000     1422.474   -737.36632    295164.61    16.731885 
24898500    1444.1846   -729.08168    311313.97    16.407821 
24899000    1574.2986    -739.3347     280172.1    16.893435 
24899500    1640.9111   -743.90253    281024.96    16.996069 
24900000    1441.9119   -734.79712    300941.79    16.599158 
24900500    1535.4878   -732.47611    304479.24    16.545025 
24901000    1600.8219   -732.74927    301740.14    16.935109 
24901500    1498.2706   -732.85254    311744.44    16.319406 
24902000    1502.5089   -749.43952    280760.65    16.229193 
24902500    1470.0405   -745.67163    280524.62    16.141818 
24903000    1537.1144   -734.97044    310237.77    16.099394 
24903500     1558.855   -736.99716    308607.53    16.126137 
24904000    1587.6158   -730.93219    312679.97    16.350372 
24904500    1518.5443   -738.93757    284867.07    16.641029 
24905000    1468.1171   -735.26025     292255.6    16.958275 
24905500    1592.6496   -729.94156    305257.71    16.603221 
24906000    1488.7269   -725.43324    318062.15    16.817486 
24906500    1380.8404     -733.896    299931.11    16.456184 
24907000    1406.8122    -743.2074    299171.35    16.039137 
24907500    1450.5802   -731.65465    321273.21    16.151952 
24908000    1502.1248   -739.25383    290793.68    16.628458 
24908500    1552.0009   -735.67106    292889.85    16.814492 
24909000    1445.2417   -735.66434    304343.82      16.2971 
24909500    1475.8752   -748.69547    288949.54    16.003064 
24910000     1376.938   -739.31696    296262.98    16.392879 
24910500    1606.0815   -732.16988    308090.21     16.54461 
24911000    1540.5102   -745.15555    274431.76    16.692653 
24911500    1463.5538   -733.88478    299811.37    16.852203 
24912000    1507.5025   -737.75122    293950.93    16.409509 
24912500     1486.619   -738.68838    299560.23    16.407635 
24913000     1510.895   -734.36942    293869.84    16.854504 
24913500    1585.8152   -740.31519    285623.04    16.556133 
24914000    1525.9063   -726.50313     318556.8    16.406925 
24914500    1380.3321   -736.30507    308278.29    16.133379 
24915000    1548.1495   -751.66077    272876.71    16.150198 
24915500    1463.1997   -748.64343    299398.58    15.673722 
24916000    1360.8116   -740.12484    319918.63    15.537503 
24916500    1481.1907   -762.88134    308444.75    15.073294 
24917000    1501.8538   -763.29293    302191.61    15.077212 
24917500    1391.5415   -764.76702    291062.38    15.084899 
24918000    1488.0898    -771.6115    276069.25    15.142227 
24918500    1421.9383   -760.29055    289337.38    15.422221 
24919000    1499.5495   -768.69286    283869.15     15.32024 
24919500    1560.4298   -764.88857    279246.45    15.388375 
24920000    1434.6494   -764.81825     293767.2    14.978826 
24920500    1506.0294   -762.63694    299172.31     14.95937 
24921000    1367.7919   -747.05352    305877.62    15.501157 
24921500    1537.6388   -755.77133    300651.24     15.28014 
24922000    1512.2711   -759.28259    297166.82     15.28359 
24922500    1402.7778    -759.1003    297083.41    15.178581 
24923000    1568.4567   -760.53594    290229.33    15.270092 
24923500    1546.7111    -754.7356    302937.97    15.422706 
24924000    1599.1323   -752.10884    313745.13    15.341482 
24924500    1420.1505   -742.45722    319382.83    15.634908 
24925000    1648.6632   -749.10391    298019.87    15.615524 
24925500    1443.6819   -750.13381    276655.89    16.056397 
24926000    1637.1924   -733.64769    309156.37    16.189219 
24926500    1567.5282   -731.10194    312332.07    16.762856 
24927000     1483.129   -729.45766    304689.91    16.845441 
24927500    1580.5174   -738.06092    282739.53    16.962719 
24928000    1527.0562   -732.17183    298765.98    16.844507 
24928500    1546.5254   -724.19701    323189.48    16.805915 
24929000     1446.399   -736.95743    291857.23    16.891195 
24929500    1565.5333   -729.31078    301774.79    16.893081 
24930000    1487.6102   -738.05654    302072.88    16.359992 
24930500    1396.5716   -731.15619    304085.23    16.999033 
24931000    1484.0012   -731.37324    311461.73    16.759422 
24931500    1339.9268   -730.94347     297764.6    16.860292 
24932000    1341.1864   -735.60379    294065.05    16.625471 
24932500    1595.2932    -724.0647    318484.44    16.934278 
24933000    1443.5527   -735.57404     296108.1    16.558387 
24933500    1549.9965   -734.07543    314113.08    16.182917 
24934000    1519.9779   -744.58651    305540.09    15.435536 
24934500    1436.6392   -762.30932    301855.52    15.158405 
24935000    1411.4708   -745.86335    309601.23    15.657049 
24935500    1482.2629   -749.94975    319892.97    15.320045 
24936000    1537.1313   -762.81715    305381.24    15.040548 
24936500    1537.8951   -759.36972    298482.13    15.267173 
24937000    1530.3287   -771.19286    280263.32     15.11764 
24937500    1562.6473   -760.89308    283331.75    15.388522 
24938000    1498.8597   -769.43937    283517.69    15.018711 
24938500    1368.4163   -760.20862    299213.34    15.216628 
24939000    1534.5588   -759.67981    303689.38    15.106652 
24939500    1486.9195   -759.20613    312141.63    15.119513 
24940000    1356.0402   -756.91969    299610.37    15.462038 
24940500    1521.8584   -748.30116     295160.5    15.821508 
24941000    1561.5778   -737.20372    309275.89    16.261607 
24941500    1396.1074   -738.60489    310652.48    15.926892 
24942000    1491.1508   -738.34344    290664.86    16.374588 
24942500    1491.4883   -736.23184    294974.92    16.547392 
24943000    1422.0331   -738.25342    289754.61    16.744398 
24943500    1567.6603    -734.0173    306713.36    16.349694 
24944000    1523.1964   -741.21212    292869.61    16.253844 
24944500    1532.9755    -752.3046    288353.18    15.621294 
24945000    1525.9043   -761.70984    302816.64     15.13198 
24945500    1601.4052   -756.81899    308474.24    15.158228 
24946000    1546.6342   -752.06316    312185.84    15.362085 
24946500    1489.8624   -762.34101    302661.06    15.032368 
24947000    1534.2731   -750.76452    289500.05    15.646046 
24947500    1469.9918    -753.0129    282417.65    15.930504 
24948000    1592.9489   -742.51846    293295.78    16.261201 
24948500    1572.3185   -730.35328    307423.45    16.605284 
24949000    1539.2982   -737.40636    281446.02    17.044278 
24949500    1277.6607   -733.30091    295082.65    16.577039 
24950000     1542.087   -726.75083    322688.19    16.749967 
24950500    1625.1893   -736.36942    283468.21     16.84353 
24951000    1370.8748   -730.11032    298633.54     16.78546 
24951500    1466.0952   -727.19009    312139.81    16.704925 
24952000    1458.9608   -737.22784    296064.77    16.463195 
24952500    1474.3406   -741.05576    280153.19    16.854161 
24953000     1605.523   -735.54378    301427.27    16.665353 
24953500    1593.0088   -730.63066    297256.36    16.771805 
24954000    1416.3369   -733.70867    295648.27    16.808496 
24954500    1430.7254   -730.45932    303957.17     16.95616 
24955000    1457.4692   -733.64491    304124.73    16.572642 
24955500    1441.8332   -736.34067     294313.7    16.906069 
24956000    1482.5186   -735.06472    299787.95    16.570587 
24956500    1470.1053   -739.93512     292620.2    16.656319 
24957000    1640.3097    -728.9172    309574.34    16.552803 
24957500    1437.2224   -727.03771    310481.27    16.937923 
24958000    1457.1841   -742.35717    284968.79    16.438993 
24958500    1422.6518   -735.25199    299246.39     17.00333 
24959000    1523.7762   -730.53541    308941.07    16.514798 
24959500    1449.8492   -731.94002    306430.48    16.447283 
24960000    1653.0272   -730.10534     314125.3    16.419962 
24960500     1532.663   -738.53721    286138.35    16.758404 
24961000    1410.7295   -740.71708    283251.02    16.632137 
24961500    1559.4722   -740.07684    294578.91    16.452454 
24962000    1464.6115   -732.65444    298822.89    16.950541 
24962500    1384.1871   -732.22278    305918.13    16.560885 
24963000    1464.1449   -738.93407    292639.04    16.652912 
24963500    1494.2418   -732.07969    311219.48    16.525433 
24964000    1631.9167   -741.26042    280730.16    16.982206 
24964500    1509.4182   -729.97794    314080.47     16.68851 
24965000    1456.4173    -730.6338    312078.56    16.531245 
24965500    1444.8958   -746.29081    283600.03    16.028169 
24966000    1488.5892   -754.80458    297226.08     15.60317 
24966500    1438.2914   -758.75082    305287.68    15.191463 
24967000    1488.8514   -756.04136    302945.71    15.305862 
24967500    1496.3769   -756.96709    315241.02    14.995232 
24968000    1487.5019   -755.65599     321198.5    15.005778 
24968500    1522.5394   -749.84417     310979.4    15.367082 
24969000    1476.8196   -749.11731    301359.39    15.711249 
24969500    1457.7911   -757.05698    301653.16    15.214746 
24970000    1518.7022    -757.0731    305543.36    15.173546 
24970500    1472.6686   -741.45926    314000.34    15.675713 
24971000    1601.9868   -750.43801    318267.48    15.321629 
24971500    1509.2177   -753.22744    321208.71    15.209156 
24972000    1701.9153   -756.65648    306631.49    15.229535 
24972500    1543.1926   -759.20916    300801.27    15.332734 
24973000    1540.6143   -767.99577    283814.11     15.15283 
24973500    1348.3012   -767.30886    288541.03    15.079134 
24974000    1427.9149   -764.14325    278824.59    15.288444 
24974500    1373.3091   -754.66661    299623.58    15.444799 
24975000    1574.4372   -753.69543     317249.8     15.20103 
24975500    1651.7973   -748.94019    328508.46    15.186799 
24976000    1562.7197   -749.05285     310070.4    15.367685 
24976500     1641.395   -758.34866    294867.74    15.403947 
24977000    1490.0801   -760.34564    297022.23    15.087178 
24977500    1604.8298   -762.37776    278401.54    15.504095 
24978000    1459.6988   -757.01891    299557.02    15.467797 
24978500    1439.3602    -759.2578    304787.63    15.171744 
24979000     1482.163   -744.78397    308088.73    15.731846 
24979500    1581.7194   -740.75213    298176.77    16.296789 
24980000    1447.3336   -735.55036    295699.79    16.620839 
24980500    1515.1525   -728.72115       304943    16.501987 
24981000    1431.8685   -723.59992    325119.35    16.773139 
24981500    1607.4955   -735.04259    291028.36    16.876361 
24982000    1496.6827   -731.76653    308952.01    17.013337 
24982500    1562.8472   -731.89755    299150.21    16.664256 
24983000    1528.5761   -740.41862     279665.1    17.110019 
24983500    1656.0391   -732.46539    307948.85    16.491952 
24984000    1504.8201   -734.61627    301797.24    16.459734 
24984500    1429.8069   -731.92717    294874.72    16.994295 
24985000    1612.0359   -736.37895    293991.07    16.603519 
24985500    1562.1142   -732.53051    305876.58    16.493155 
24986000    1443.9662   -736.61436    285734.29    16.643044 
24986500    1523.9019    -730.9586    303152.72    16.706894 
24987000    1522.1466   -731.91156    306078.28    16.542175 
24987500    1416.0494   -736.38236    290359.14    16.893399 
24988000     1520.708   -738.64509    294145.64     16.79815 
24988500    1467.1163   -732.24938    301607.05    16.727342 
24989000    1547.4743   -732.07641    301903.23    16.603646 
24989500    1593.5735   -735.89066    292812.13    16.846901 
24990000    1487.5127    -734.9486     296168.8    16.735506 
24990500    1508.4937   -737.06386    297873.11    16.061783 
24991000    1339.5266   -735.74699    297986.98    16.547393 
24991500     1481.033   -734.51509    305962.64    16.636578 
24992000    1516.6068   -733.42477     308164.7    16.133692 
24992500    1458.9509   -733.39679    313019.28    16.214626 
24993000    1443.5373   -743.93882    279885.54    16.628127 
24993500    1417.0877   -730.32629    306924.19    16.616578 
24994000     1564.479    -742.2249       289742    16.136689 
24994500    1685.5622   -747.56193    310074.82     15.57084 
24995000    1464.1234   -745.87435    309971.96    15.720835 
24995500     1466.962   -756.22803    283932.61    15.676282 
24996000    1489.1018   -751.62521    287832.18    15.678239 
24996500    1412.0555   -746.24633    292136.26    15.869172 
24997000    1504.9185   -736.21873    305478.34    16.359256 
24997500    1420.4184   -724.41624    316482.98    16.783603 
24998000    1535.5096   -731.57015    296706.15    16.990059 
24998500    1422.8799   -738.32695    288377.61    16.967269 
24999000    1446.5865   -730.75879    301345.91    16.999131 
24999500    1672.8535    -727.6948    317323.56    16.376141 
25000000    1384.4946   -733.67582    297316.14    17.040409 
Loop time of 6771.85 on 8 procs for 20000500 steps with 256 atoms

Performance: 510.361 ns/day, 0.047 hours/ns, 2953.478 timesteps/s
97.3% CPU use with 8 MPI tasks x no OpenMP threads

MPI task timing breakdown:
Section |  min time  |  avg time  |  max time  |%varavg| %total
---------------------------------------------------------------
Pair    | 3466.9     | 3588.4     | 3706.5     | 139.0 | 52.99
Neigh   | 75.28      | 76.967     | 78.868     |  14.6 |  1.14
Comm    | 905.96     | 1033.9     | 1170.2     | 280.7 | 15.27
Output  | 122.73     | 122.76     | 122.88     |   0.4 |  1.81
Modify  | 1872.2     | 1885.5     | 1896.5     |  17.4 | 27.84
Other   |            | 64.22      |            |       |  0.95

Nlocal:    32 ave 33 max 31 min
Histogram: 1 0 0 0 0 6 0 0 0 1
Nghost:    1076.88 ave 1084 max 1069 min
Histogram: 1 0 1 1 0 1 2 0 1 1
Neighs:    2772.88 ave 2876 max 2677 min
Histogram: 1 0 0 1 3 2 0 0 0 1

Total # of neighbors = 22183
Ave neighs/atom = 86.6523
Neighbor list builds = 703860
Dangerous builds = 0

write_data	data.final
Total wall time: 1:52:52
