LAMMPS (8 Feb 2019)
Processor partition = 1
echo both

include         in.partitions
variable p_id world   0 1 2 3
include		in.temp
variable	temperature equal 1500.0
variable	tempDamp equal 0.1 # approx 0.1 ps
include		in.pressure
variable	pressure equal 300000.
variable	pressureDamp equal 1.0
include 	in.seed
variable	seed world 74581 3459 97394 49764
units		metal
read_restart    Restart.lmp.${p_id}
read_restart    Restart.lmp.1
  restoring atom style atomic from restart
  orthogonal box = (-0.134497 -0.134497 0.321333) to (15.2869 15.2869 14.8311)
  2 by 2 by 2 MPI processor grid
  pair style eam/alloy stores no restart info
  256 atoms
include 	in.setup
variable	out_freq equal 500
variable	out_freq2 equal 500

neigh_modify    delay 10 every 1
include		in.al
### Argon Potential Parameters ###
pair_style 	eam/alloy
pair_coeff 	* * Al99.eam.alloy Al

timestep	0.002 # According to Frenkel and Smit is 0.001

thermo          ${out_freq}
thermo          500
thermo_style 	custom step temp pe press lx


restart 	${out_freq} Restart.lmp.${p_id} Restart2.lmp.${p_id}
restart 	500 Restart.lmp.${p_id} Restart2.lmp.${p_id}
restart 	500 Restart.lmp.1 Restart2.lmp.${p_id}
restart 	500 Restart.lmp.1 Restart2.lmp.1



timer 		timeout 23:50:00 every 1000
New timer settings: style=normal  mode=nosync  timeout=23:50:00

# NPT

include		in.dump
dump            myDump all atom ${out_freq2} dump.al.${p_id}
dump            myDump all atom 500 dump.al.${p_id}
dump            myDump all atom 500 dump.al.1
dump            myDcdDump all dcd ${out_freq2} out.${p_id}.dcd
dump            myDcdDump all dcd 500 out.${p_id}.dcd
dump            myDcdDump all dcd 500 out.1.dcd
dump_modify	myDump append yes
dump_modify     myDcdDump append yes



fix             1 all plumed plumedfile plumed.dat outfile plumed.out
fix             2 all nph aniso ${pressure} ${pressure} ${pressureDamp} couple xy
fix             2 all nph aniso 300000 ${pressure} ${pressureDamp} couple xy
fix             2 all nph aniso 300000 300000 ${pressureDamp} couple xy
fix             2 all nph aniso 300000 300000 1 couple xy
Resetting global fix info from restart file:
  fix style: nph, fix ID: 2
fix             3 all temp/csvr ${temperature} ${temperature} ${tempDamp} ${seed}
fix             3 all temp/csvr 1500 ${temperature} ${tempDamp} ${seed}
fix             3 all temp/csvr 1500 1500 ${tempDamp} ${seed}
fix             3 all temp/csvr 1500 1500 0.1 ${seed}
fix             3 all temp/csvr 1500 1500 0.1 3459
fix             4 all momentum 10000 linear 1 1 1 angular

run             25000000 upto # 50 ns
All restart file global fix info was re-assigned
Neighbor list info ...
  update every 1 steps, delay 10 steps, check yes
  max neighbors/atom: 2000, page size: 100000
  master list distance cutoff = 8.28721
  ghost atom cutoff = 8.28721
  binsize = 4.1436, bins = 4 4 4
  1 neighbor lists, perpetual/occasional/extra = 1 0 0
  (1) pair eam/alloy, perpetual
      attributes: half, newton on
      pair build: half/bin/atomonly/newton
      stencil: half/bin/3d/newton
      bin: standard
Per MPI rank memory allocation (min/avg/max) = 4.014 | 4.014 | 4.015 Mbytes
Step Temp PotEng Press Lx 
 4999500    1498.0421   -756.56246     301764.4    15.421395 
 5000000         1455    -762.8222    304706.15    14.993616 
 5000500    1465.5967   -749.69878    298116.86     15.58496 
 5001000    1465.4067   -753.03798    296423.47    15.722116 
 5001500    1477.5946   -767.63797    272938.05    15.361453 
 5002000    1407.6362   -766.47566    275813.51    15.405354 
 5002500    1505.2793   -761.84044    293056.89    15.307975 
 5003000    1483.8776   -763.03433    292730.13    15.288385 
 5003500    1369.9565   -756.79583    307896.11    15.190106 
 5004000    1602.4953    -758.1345     309588.9    15.024954 
 5004500    1493.0156   -754.90038    321753.32    15.041044 
 5005000    1451.0193   -754.97676    320356.82    14.987178 
 5005500    1507.4439   -757.44726    302070.01    15.298888 
 5006000    1364.5981   -757.35436    290137.83    15.411967 
 5006500    1403.5373   -765.10893     279621.3     15.39032 
 5007000      1413.26   -768.43829    276998.79    15.050491 
 5007500    1594.0817   -760.64924    300271.48    15.204559 
 5008000    1659.4213   -757.45306    304528.54    15.361188 
 5008500    1600.3106   -756.29091    314035.72    14.930521 
 5009000    1442.2448    -746.3286    311892.69    15.444482 
 5009500      1490.27   -761.23255    299213.81    15.310108 
 5010000    1444.6208   -752.92871    286823.86    15.707673 
 5010500    1528.9463     -753.208     281401.9    16.012379 
 5011000    1520.9881   -740.38838    292153.07     16.25437 
 5011500    1482.0604   -733.49511    315939.25    16.145361 
 5012000    1432.6361   -746.38325    293268.18    15.769506 
 5012500    1397.4508   -768.11759    293303.16    15.039564 
 5013000    1446.3036   -755.84815    301564.06    15.125412 
 5013500     1478.701   -746.15722    313191.03    15.483121 
 5014000    1548.7932   -759.80121    306919.54    15.040576 
 5014500    1572.9804   -754.49011    316436.03    15.261207 
 5015000    1571.3011   -754.13065    301301.08    15.554627 
 5015500      1407.58   -756.21944    293094.57    15.468888 
 5016000    1506.4403    -766.3196    290632.57    15.181676 
 5016500    1438.9453   -769.45498    273415.01    15.180409 
 5017000    1470.1293   -760.04617    290911.83    15.449044 
 5017500    1452.9829   -760.52441    307583.33    15.060692 
 5018000    1577.3945   -749.33596    324580.92    15.065312 
 5018500    1531.3791   -754.31459    317851.02    14.972388 
 5019000    1547.9611   -760.02617    305501.73    15.009704 
 5019500    1499.0571   -764.15041    289038.38    15.284209 
 5020000    1606.7165   -768.16803    275050.83    15.392022 
 5020500    1551.4308   -760.88293    288310.28    15.334133 
 5021000    1465.6294   -758.25714    301621.13    15.175804 
 5021500    1652.6207   -759.71799    312617.39     15.08418 
 5022000    1574.8222   -754.80667    313325.72    14.984085 
 5022500    1419.8455   -757.37072    306977.81    15.321642 
 5023000    1341.5861   -762.24403    310692.86    15.065796 
 5023500    1504.9118   -743.65617    309297.42     15.59262 
 5024000    1558.1484   -755.52874    315465.18    15.076579 
 5024500    1566.5158   -762.53046    299927.86    15.177499 
 5025000    1554.9112   -766.30701    283814.86    15.141706 
 5025500    1490.6214   -762.04359    293717.34    15.204726 
 5026000    1496.6228   -758.13403     306106.5    15.018743 
 5026500    1507.1657   -748.62322    322083.87    15.136814 
 5027000    1692.3786   -758.63027    315100.33    15.120157 
 5027500     1432.033   -755.72722    308089.06    15.264978 
 5028000    1631.7005   -755.38882     306518.2    15.364652 
 5028500    1477.7254   -765.85456    297749.17     14.99796 
 5029000    1489.9621   -766.04778     290478.7    15.034622 
 5029500    1384.2941   -765.59998    283374.34    15.391823 
 5030000    1313.9728   -767.31424    277063.03    15.365073 
 5030500    1636.1244    -775.3863    267339.07    15.304493 
 5031000    1496.9259   -761.27273    296887.85    15.288099 
 5031500    1549.4193   -759.50182    306174.32    15.232344 
 5032000    1476.3432   -754.36092    317570.74    15.247987 
 5032500    1423.2387   -742.02913    337548.46    15.152565 
 5033000     1478.037   -760.02152    302833.19    15.019119 
 5033500    1461.3573   -756.49679    298185.18    15.385492 
 5034000    1577.7176   -759.88333    300004.07    15.132402 
 5034500     1632.761   -752.80358    311417.43    15.324655 
 5035000    1551.0528   -741.64052    314749.97    15.635872 
 5035500    1663.6862   -750.30209    306497.41    15.481879 
 5036000    1476.3657   -758.82399     303662.9     15.18402 
 5036500    1673.4126   -769.12733    293554.23    15.184285 
 5037000    1443.8762   -757.78429     287685.5    15.285114 
 5037500    1421.9525   -758.24729     294932.2    15.411722 
 5038000    1419.3708   -761.97207    305556.16    15.040339 
 5038500    1335.4618   -747.93511    312103.53    15.430807 
 5039000    1481.3906    -737.3685    310942.57    15.886563 
 5039500    1574.9005   -744.05916    290278.86     16.33117 
 5040000    1462.5203   -729.82888    306349.96    16.974575 
 5040500    1581.0879   -734.03465    293405.79    16.851326 
 5041000    1561.6047   -732.97747    302450.02    17.065962 
 5041500    1613.5559   -730.14647    304633.95     16.56265 
 5042000    1415.3201   -736.77697    290650.11    17.163835 
 5042500    1580.3865   -733.84711    290632.03    17.122825 
 5043000    1634.9841   -737.80099    288233.51    16.525234 
 5043500    1467.4739   -724.11472    320270.16    16.779972 
 5044000    1361.8307   -733.97181    297522.24    16.912009 
 5044500    1445.3655   -733.83402    308138.72    16.459971 
 5045000      1510.61   -729.92349    305785.11    16.665441 
 5045500    1400.9504   -742.44852    274929.73    16.650759 
 5046000    1603.6549   -729.90844    312053.47    16.571484 
 5046500    1560.0453   -734.90765    309000.62     16.54111 
 5047000    1432.1909   -735.72763    288133.66    17.119219 
 5047500    1626.1021   -731.23821    311750.62    16.518915 
 5048000    1410.5656   -731.50667    302337.88    16.970305 
 5048500    1460.3799   -739.03183    294789.86    16.332486 
 5049000    1577.0058   -732.72542    297095.27    16.556127 
 5049500    1444.4776   -740.12722    284395.41    16.858121 
 5050000    1650.4117   -733.38981    296721.96     16.65971 
 5050500    1647.3818   -726.19799    315010.72    16.624297 
 5051000    1464.8315   -740.65211    297623.72    16.297928 
 5051500    1570.9388   -743.66169    303109.61    15.929422 
 5052000    1540.4316   -754.66251    301753.24    15.452153 
 5052500    1491.3397   -763.31618    298576.34    15.020319 
 5053000    1593.7596   -757.04259    310378.12    15.330038 
 5053500     1618.896   -759.16226    307944.23    15.055364 
 5054000    1432.7567   -752.82763     310155.5     15.26448 
 5054500    1452.0774   -761.31967    301291.21    15.075908 
 5055000    1469.4038   -767.81041    289646.78    15.275956 
 5055500    1365.5594   -762.62078    288009.83    14.972164 
 5056000    1495.3382   -761.31501     290205.5    15.418361 
 5056500    1397.1865   -757.40056    294557.75    14.849505 
 5057000    1488.3658   -763.68669    298784.64    15.003486 
 5057500    1532.8789   -762.68943    301722.35    15.179326 
 5058000    1479.9174   -753.94437    309015.44    15.294261 
 5058500    1458.1857   -743.28227    303314.04    15.878265 
 5059000    1509.0478   -758.84187       291034    15.331073 
 5059500     1529.136   -767.33721    286941.22    15.172239 
 5060000    1652.5287   -766.58931    285644.04    15.229294 
 5060500    1430.3014    -762.8377    296977.93     15.15412 
 5061000    1452.1636   -753.52799    319486.23    15.048026 
 5061500    1487.6263   -748.30632    325275.43    15.121953 
 5062000    1344.8283   -756.64575     315167.6    15.142019 
 5062500    1471.8007   -756.77727    312431.33    15.082281 
 5063000    1499.8795   -757.53704    314159.67    15.026723 
 5063500    1525.9033   -762.65951    290916.79    15.259983 
 5064000    1495.1787   -770.59836    287296.45    15.141417 
 5064500    1516.9694   -769.13868     285169.5    15.138096 
 5065000    1473.0979   -764.33411    290635.46    15.332065 
 5065500    1492.1338   -756.63889    304475.91    15.257394 
 5066000     1513.684   -754.06981    320369.35    15.272786 
 5066500    1511.6029   -749.36398    322201.67    15.270612 
 5067000    1483.8245   -750.07718    319373.38    15.164632 
 5067500    1445.3833   -759.81525    298824.02    15.258507 
 5068000    1607.5405   -763.14326    285438.43     15.34831 
 5068500    1464.8511   -767.16034    284848.85    15.277042 
 5069000    1576.8675   -759.93041    295199.34    15.323491 
 5069500    1563.2237   -764.29523    296508.31    15.198177 
 5070000     1539.673   -754.78274    308490.78    15.357008 
 5070500    1593.6503   -756.57813     312840.4    15.096262 
 5071000    1399.9906   -758.28607    309433.07    15.109253 
 5071500    1371.5529   -760.88176    303203.57    15.024288 
 5072000    1474.7252   -756.76784    287961.97    15.442315 
 5072500    1528.8571   -768.59829    278677.22    15.121694 
 5073000    1415.0547    -762.8533    289241.34    15.295016 
 5073500     1500.609   -761.38924    298120.68    15.223866 
 5074000    1412.2024   -761.92617    300297.07    15.197677 
 5074500    1422.9192   -757.81147    303630.12    15.189453 
 5075000    1438.6411   -752.51383    312170.38    15.190256 
 5075500    1555.2688   -753.33702     317102.7    15.136358 
 5076000     1430.158   -759.55239    301563.23    15.065294 
 5076500    1497.2846     -756.434    304079.75    15.284091 
 5077000    1441.8629    -761.7992    303668.27     14.97081 
 5077500    1419.9251   -761.42179    288594.46    15.362631 
 5078000    1402.0163   -759.26747    279503.88    15.529171 
 5078500    1572.0179     -753.453     290496.8    15.638856 
 5079000    1489.0953    -754.8342    294669.65    15.610346 
 5079500    1497.9943    -750.1342     303838.8    15.666781 
 5080000    1370.2441   -728.57461    314694.72    16.266403 
 5080500    1477.2181   -739.72744    288528.99    16.737613 
 5081000    1367.8819   -733.71271    302566.33    16.826288 
 5081500    1569.0516   -734.39348    300088.54    16.730045 
 5082000    1425.6011   -739.15897    288181.42    16.765247 
 5082500    1547.9514   -733.95088    304137.19    16.648092 
 5083000    1527.1522   -735.46745    301383.49    16.671114 
 5083500    1492.3636   -741.17198    277592.33    16.980268 
 5084000    1446.9743   -731.73328    305490.39    16.832979 
 5084500    1557.0416   -735.14738    307720.18    16.368252 
 5085000    1503.4209   -742.07981    282210.53    16.778663 
 5085500    1449.2499   -738.53968    286662.11    16.839066 
 5086000    1459.9246   -729.76179    311269.36    16.495454 
 5086500    1457.5689   -725.77556    316073.81    16.838644 
 5087000    1479.3922   -729.94442    306509.05    16.894101 
 5087500     1515.977   -732.75196    312350.32    17.109028 
 5088000    1608.5775   -734.08638    296785.55    16.929421 
 5088500    1528.5465   -735.14808    294960.85    16.742409 
 5089000    1490.8275   -729.80085    316816.26    16.565833 
 5089500      1380.23   -735.10058    293228.17    16.817821 
 5090000     1566.417   -741.40093    287342.82    16.636853 
 5090500    1556.2311   -732.38757    306648.74    16.500047 
 5091000    1594.7105   -742.61152    289934.44    16.533339 
 5091500    1440.1486   -743.39216    279578.09    16.643922 
 5092000    1514.7247   -729.91934    314425.91    16.547325 
 5092500     1561.046   -735.45084    312638.93    16.201083 
 5093000    1415.4051   -747.89399    280088.96    16.241983 
 5093500    1478.1317   -726.20613    320279.84    16.564308 
 5094000    1416.3004   -729.95892    308568.27    16.351972 
 5094500    1579.7761   -748.52435    286080.67    16.006621 
 5095000    1593.7526   -756.46158    288508.05    15.498276 
 5095500    1523.7727   -769.99259     291491.8    15.048996 
 5096000    1462.4553   -753.11354    305765.16    15.452307 
 5096500    1408.7354   -749.57579    321585.96    15.229343 
 5097000    1433.5318   -750.73151    319142.17    15.251015 
 5097500    1437.7339   -752.64591    316591.31    15.180618 
 5098000    1494.0482   -758.31255    313344.33    15.171391 
 5098500    1505.3516   -761.67922    292714.25    15.335084 
 5099000    1553.7549    -763.5524    282346.57    15.301838 
 5099500    1320.8286   -770.44485    278330.97     15.29354 
 5100000    1483.2066   -774.59019       271915    15.149268 
 5100500    1572.1917   -757.80608    298486.42    15.329965 
 5101000    1483.7012   -762.45116    302276.89     14.98447 
 5101500    1506.6432   -746.29668    308781.52    15.434501 
 5102000    1508.3793   -735.05617    340077.69    15.527023 
 5102500    1554.5557   -752.49045    307570.79    15.204613 
 5103000    1648.4724   -756.70534       300457    15.437949 
 5103500    1413.2509   -749.91593    289476.38     15.88482 
 5104000    1392.3705    -755.8179     309290.2    15.115835 
 5104500    1578.5371   -754.03615    313186.35     15.05774 
 5105000    1566.0347   -757.06154    307630.32    15.246186 
 5105500     1565.871   -762.38625    297249.91    15.233374 
 5106000     1435.617   -750.81339    286939.47    15.764475 
 5106500    1594.3806   -767.71133    280689.36    15.375613 
 5107000    1419.4023   -759.21433    289854.93     15.44915 
 5107500    1573.7569   -743.13296    312720.46    15.735843 
 5108000    1452.1977   -744.21088    316126.58     15.56789 
 5108500    1572.3404    -761.1934    293996.86    15.286907 
 5109000    1387.8032   -766.58107    283851.97    15.192731 
 5109500     1466.927   -762.48025    295932.55    15.343988 
 5110000    1554.0141   -767.06913    286372.94    15.132798 
 5110500    1500.5157   -760.35508    285216.06    15.484629 
 5111000    1493.7684    -769.0519    283883.13    15.010437 
 5111500    1558.0315    -764.5898     291151.5    15.251106 
 5112000    1545.9462   -762.12051    297072.48    15.206408 
 5112500     1444.994   -758.31267    303620.42    15.198681 
 5113000    1430.9498   -757.28011    314466.97    15.153343 
 5113500    1595.5903   -745.01868    310618.87    15.635644 
 5114000    1566.1056   -753.28165    305349.14    15.380684 
 5114500    1622.3286   -761.64838    289084.18    15.372649 
 5115000    1293.8262   -771.10513    276336.38    15.347299 
 5115500    1425.5457    -771.1874    278825.25    15.153625 
 5116000    1502.6133   -766.76991    288377.85    15.111338 
 5116500    1489.7081   -761.95537    289808.04    15.350045 
 5117000    1510.6678   -760.34719    301917.68    15.174479 
 5117500    1564.0591   -763.55784    306689.96    15.107788 
 5118000    1522.3079   -761.19143    306898.32    15.034456 
 5118500    1594.2764   -758.21635    310309.34    15.197382 
 5119000    1531.9407   -757.64646    303860.23    15.181256 
 5119500    1588.1041   -766.61383    291986.52    15.219098 
 5120000    1496.8027   -769.65205    281866.25    15.223434 
 5120500    1425.4029   -760.76216    287828.63    15.397525 
 5121000    1541.5709   -754.26833    303795.82    15.346422 
 5121500    1438.7939   -736.77966    321519.48    15.708297 
 5122000    1487.2985   -741.73573     315559.2    15.623576 
 5122500    1426.2308   -747.66463    299807.34    15.760966 
 5123000    1547.9931   -754.73653    275880.42    15.950792 
 5123500    1485.6829     -758.011    282108.07     15.63931 
 5124000    1510.5531   -741.33795     300362.1    15.894818 
 5124500    1740.4335   -737.58074    305479.71    16.222942 
 5125000    1455.4023   -733.65472     320266.9    15.808912 
 5125500    1518.2708   -751.97362    306553.51    15.409775 
 5126000     1531.823   -763.44862    293950.35     15.17099 
 5126500    1480.0159   -763.66134     283657.3      15.4565 
 5127000    1415.9747   -747.48392     292584.7    15.854616 
 5127500    1696.3802   -734.25529    308692.91    16.247645 
 5128000    1483.9652   -734.72365     303093.3    16.690111 
 5128500    1460.5297   -738.88282    289355.11    16.573517 
 5129000    1570.6017   -729.47922    307926.67    16.559919 
 5129500     1521.167   -734.84711     307449.4    16.256827 
 5130000    1501.3943   -742.04368    293284.18    16.133914 
 5130500    1500.7629   -754.64025     287565.5    15.577113 
 5131000    1396.2822   -759.30696    303667.05    15.178103 
 5131500    1354.1256   -755.39945    314734.85    15.189548 
 5132000    1482.5143   -755.70332    317831.54    15.040225 
 5132500     1497.609   -762.53913    309246.18    14.969098 
 5133000    1498.9943   -759.15386    295093.78    15.399266 
 5133500    1530.3068   -766.60967    289082.09     15.27098 
 5134000    1431.0806     -760.651    291638.67     15.33922 
 5134500    1385.9941   -768.33809    283063.32     15.30563 
 5135000    1560.7933    -750.3612    290416.53    15.707613 
 5135500     1389.572   -744.77067    312992.17    15.543386 
 5136000    1468.4813   -750.08651    317079.12    15.183837 
 5136500     1429.295   -750.82946    314048.39    15.209331 
 5137000    1575.8959   -750.57325    316897.83    15.328786 
 5137500    1581.8051   -764.19448    299460.78     15.13908 
 5138000    1553.8924    -767.3317    287328.88    15.156038 
 5138500    1530.3684   -761.32802    284313.62    15.430617 
 5139000    1353.3986   -762.35491    287725.49    14.995169 
 5139500     1534.051   -759.43897    293882.36    15.376945 
 5140000    1478.9291    -761.1749    294463.08    15.307878 
 5140500    1419.8845   -757.33237       307861    15.033563 
 5141000    1358.5254   -758.35703    314141.13    15.217763 
 5141500    1517.0137   -756.45872    310823.79    15.275996 
 5142000    1324.4591   -739.75772    313111.99    15.758669 
 5142500    1494.8135   -741.17402    297253.55    16.196101 
 5143000    1506.3803    -737.0482     305504.1    16.112208 
 5143500    1649.6046   -747.91413    291560.04    15.937334 
 5144000    1617.2038   -761.52167    284202.07    15.502162 
 5144500    1464.2742   -761.61925    292026.93      15.2935 
 5145000    1445.4366   -763.49813    289237.76     15.31225 
 5145500    1461.9819   -767.62322    285563.21    15.236985 
 5146000    1452.5825   -760.76117    298983.64    15.193561 
 5146500    1421.7768   -753.55367    316776.03    15.040006 
 5147000     1596.232   -743.96459    305944.58     15.69872 
 5147500    1574.7042   -749.16352    293199.34    15.719894 
 5148000    1519.7292   -753.30282     292441.1    15.620314 
 5148500    1392.3179   -752.75289    304442.27    15.361796 
 5149000    1454.5253   -756.16834    305476.35    15.346834 
 5149500    1439.1273   -740.64465    320088.06    15.668876 
 5150000    1519.6162   -748.25689    314079.62    15.434001 
 5150500    1535.9637   -740.94794    304835.01    15.891828 
 5151000    1661.3853   -736.36586    308763.45    15.997084 
 5151500    1560.7661    -746.8739    289353.67    16.069803 
 5152000    1362.8084   -745.67945    284248.99    16.199748 
 5152500    1570.8139   -738.21439    289441.96    16.553123 
 5153000    1491.7535   -731.09146    314199.55    16.432778 
 5153500    1453.1486   -732.23764       299011    16.950938 
 5154000    1557.0493   -738.70815    289083.04    16.496179 
 5154500    1521.7865   -730.96604    307313.12    16.951987 
 5155000    1390.0936   -735.58426    293656.36    16.526773 
 5155500    1538.6636   -725.87799    315090.86    16.749248 
 5156000    1602.4964   -740.85963    291578.74    16.523402 
 5156500    1400.5066   -746.28131    282172.33    16.214024 
 5157000    1532.9061   -730.70606    317969.26    16.250527 
 5157500    1527.9775   -735.62135    295672.31    16.754305 
 5158000    1544.8549   -731.87882    310963.83    16.395326 
 5158500    1557.7618   -726.91495    311786.22    16.784224 
 5159000    1486.9655   -732.79209     300036.9    16.596106 
 5159500     1529.331   -741.97258    295932.53    16.040483 
 5160000    1531.0479   -743.56018    291523.71    16.310373 
 5160500    1536.5717   -732.77845    307073.87    16.635659 
 5161000    1433.4369   -737.31073    298591.72    16.400894 
 5161500    1635.5503    -723.6057    319852.64     16.75046 
 5162000    1489.5419   -731.74577    310815.38    16.754078 
 5162500     1441.105   -743.23497    279338.34    16.804139 
 5163000    1328.1212   -739.00779    291576.72    16.401161 
 5163500    1444.3784   -743.16029    301319.76    15.751952 
 5164000     1517.436    -761.2277       297714    15.279847 
 5164500    1609.3857    -760.7803    292388.41    15.290514 
 5165000    1619.0683   -759.84759    302813.18    15.214361 
 5165500    1439.9241   -764.20996    304836.33    15.112765 
 5166000    1456.0278   -762.36522    298803.32      15.1582 
 5166500    1511.7719   -757.97361     296803.4    15.328094 
 5167000    1576.5936   -770.16974    291143.08    15.082791 
 5167500    1562.1497   -759.45793    296539.88    15.396795 
 5168000    1492.3568   -762.30795    295611.63    15.237712 
 5168500    1425.8038   -749.01382    308841.35    15.488859 
 5169000    1445.3416   -738.57422    328223.63    15.573386 
 5169500    1510.4482   -742.93923    315379.22    15.569188 
 5170000    1472.4424   -753.50373    305393.68    15.390056 
 5170500    1361.0197   -760.70545    292658.06    15.331858 
 5171000    1417.2548   -767.01791    281072.61    15.261281 
 5171500    1399.4714    -769.7556    284635.15    14.993887 
 5172000    1449.1178   -765.17432    295888.89    15.088723 
 5172500    1661.7103   -755.04219    319364.97    14.982121 
 5173000    1388.7327   -751.81265    324035.16    15.052808 
 5173500    1485.9144   -756.37525    315898.39    15.234018 
 5174000    1521.0348   -760.40976    300522.46     14.95348 
 5174500    1516.1135   -764.80044    287655.06    15.073177 
 5175000    1568.1642   -766.97014    284929.46    15.227355 
 5175500    1433.4984   -770.92595    292295.34    15.089782 
 5176000    1418.1774   -754.94073     316360.3     15.14592 
 5176500    1508.2903   -746.88621    325596.17    15.165802 
 5177000    1581.3592   -758.28616    314153.97    15.007207 
 5177500    1482.3076   -763.12793    303430.44    15.082263 
 5178000    1384.5569   -767.98175    282938.94    15.234129 
 5178500    1419.3332   -760.80731    291466.12    15.341831 
 5179000    1563.2963   -763.27636    292748.13    15.202989 
 5179500    1332.4371   -757.62737     307641.2    15.107236 
 5180000    1482.1362   -753.00767    316161.03    15.251283 
 5180500    1626.4808   -748.79498    318774.42    15.261908 
 5181000     1495.232   -749.46896    312852.08    15.308854 
 5181500    1526.8474   -760.22608    300472.09    15.056173 
 5182000    1421.6635   -761.37805    287965.41    15.255649 
 5182500    1584.1651   -775.33303    264268.73    15.390408 
 5183000    1445.5739   -764.64516    284273.85    15.351444 
 5183500    1455.5512   -762.76652     286630.7    15.454217 
 5184000    1587.6003   -757.78593    298807.71    15.413864 
 5184500    1563.0366   -745.84742    310744.01    15.712879 
 5185000    1486.4071   -747.58108    313712.98    15.486589 
 5185500      1568.36   -764.88573    299703.44    15.018488 
 5186000    1384.6602   -763.57217    294115.18    15.323485 
 5186500    1489.5486    -766.5382    285916.42    15.096873 
 5187000    1577.5101   -764.72956    291381.18    15.240624 
 5187500    1478.8528   -759.40449    299303.61    15.289925 
 5188000    1595.4985   -759.50051     301435.1    15.250113 
 5188500    1546.7807   -757.87352       315309    14.942159 
 5189000    1459.8051    -744.5832    325806.46    15.448244 
 5189500    1475.4583    -747.4832    301425.03     15.66303 
 5190000     1575.616   -745.94372    292001.99    15.976934 
 5190500    1488.0667   -733.94595    302614.45    16.563823 
 5191000    1567.3645   -728.11472    306634.34    16.830527 
 5191500    1416.0445   -731.63893       300302    16.826653 
 5192000    1421.9562   -736.72221    298620.12    16.651972 
 5192500    1516.5438    -736.7027    302067.42    16.291127 
 5193000    1533.0391   -725.85319    313907.68    16.586954 
 5193500    1612.4594    -741.7943    281025.41    16.655195 
 5194000    1456.6255   -736.87036    301027.06    16.488435 
 5194500    1552.2561   -733.06796    309460.08    16.447274 
 5195000    1477.8247   -742.85215    279841.95    16.703016 
 5195500    1583.5745   -742.55584    287932.01    16.600914 
 5196000    1347.4911   -734.46864    302078.96    16.648874 
 5196500    1491.5618   -728.08952    315083.92    16.483911 
 5197000    1438.2963   -746.54885    282571.74    16.232678 
 5197500    1484.8014    -747.2566    297941.87     15.87778 
 5198000    1509.3546   -741.58449    315200.07    15.600555 
 5198500    1564.9082   -750.63123    320621.19    15.140457 
 5199000    1505.5051   -758.45038    299493.63    15.079422 
 5199500    1473.8663   -755.96454    292222.48    15.462147 
 5200000    1533.2679   -766.73702     271950.9    15.040113 
 5200500    1344.2445   -758.69412    297919.73    15.318741 
 5201000    1493.0009   -760.54639    299364.95    15.287219 
 5201500    1523.0197    -760.7921    307782.06      14.9368 
 5202000     1402.762   -750.44615     318560.1    15.243596 
 5202500    1400.3833   -754.57904     308269.2     15.22889 
 5203000    1624.9886   -756.91279    301989.13    15.263064 
 5203500    1423.6425   -762.00981    288904.52    15.323128 
 5204000    1511.7802    -765.5625    277843.08    15.379049 
 5204500    1447.6134   -763.95862    281106.92    15.496811 
 5205000    1579.9406   -766.08119    286171.33    15.013166 
 5205500    1427.2866   -762.26484    294107.48    15.090719 
 5206000    1616.4287   -764.12348     298486.8    15.264657 
 5206500    1543.3907   -749.54622    316049.59    15.256861 
 5207000     1483.752   -748.44875    321521.66    15.278388 
 5207500     1466.662   -749.68623    321983.83    15.044699 
 5208000    1547.5771   -751.85605    309993.25    15.003878 
 5208500    1452.2489   -760.89588    295814.15     15.12027 
 5209000    1600.5504   -762.17392    295802.49    15.052291 
 5209500    1500.7923    -766.8905    281462.27    15.351002 
 5210000    1550.4101   -764.98699    284400.26    15.361587 
 5210500    1496.1069   -763.83462    292166.32    15.226687 
 5211000    1468.7676    -761.9487    295000.19    15.188411 
 5211500    1437.0567   -757.54495    304085.66    14.990139 
 5212000    1501.9241   -755.61953    305361.65    15.391417 
 5212500    1576.6038   -754.53834    312530.22    15.289005 
 5213000    1496.3403    -752.2261    319142.19    15.079694 
 5213500    1419.3003    -764.4396    301983.22    15.085398 
 5214000     1379.714    -759.3667    288357.21    15.036001 
 5214500     1466.007   -759.96762    287466.06    15.428612 
 5215000     1398.144   -766.10073    288170.92       15.037 
 5215500    1387.7046   -761.99598    302105.47    15.213314 
 5216000    1544.8004    -760.5956    314139.67    15.030536 
 5216500    1459.6581   -751.69625    317172.29    15.350914 
 5217000    1524.8562   -749.82747    296670.27    15.598456 
 5217500    1411.6016   -741.71391     295565.3    15.831914 
 5218000    1487.8721   -757.36486    306061.43    15.218639 
 5218500    1612.8466   -749.42464    317839.16    15.351694 
 5219000    1517.4323   -755.26317    309659.91    15.227237 
 5219500     1511.424   -748.78619     289315.1    15.895519 
 5220000    1396.3995   -748.08933    280227.37    16.127224 
 5220500    1508.5473   -736.50724    308350.15    16.233816 
 5221000    1376.0985   -742.21599    294732.15    16.088164 
 5221500    1418.0299   -744.11621     287996.5    16.215599 
 5222000     1489.698   -735.20978    300385.35    16.759134 
 5222500    1429.4482   -731.99433    310993.48    16.499347 
 5223000    1521.4912   -727.74055    314416.91    16.657379 
 5223500    1334.8952   -737.21428    287516.97     16.96977 
 5224000    1387.6231    -731.4729     300125.2    16.850576 
 5224500    1376.4643   -737.53274    296873.79    16.349903 
 5225000     1562.271   -734.98597    315726.99    16.075405 
 5225500    1437.1301   -744.68586    292744.34    15.934909 
 5226000    1574.9932   -761.57197    286101.73    15.515991 
 5226500     1537.886   -749.24248    297641.19    15.772482 
 5227000    1383.9416   -740.14963    318181.27    15.664233 
 5227500      1597.64   -757.68363    317119.65    15.008974 
 5228000    1533.4365   -756.11871    299249.37    15.358496 
 5228500    1618.1933   -761.13249     290106.7     15.46888 
 5229000     1506.161   -769.78293    274297.87    15.262763 
 5229500    1535.9541   -765.11232     289433.5    15.113961 
 5230000    1618.1887   -762.69005    304447.95    15.060221 
 5230500    1499.8938   -752.06509    318358.61    15.156707 
 5231000    1467.1651   -756.13119    306705.21    15.312021 
 5231500     1457.319   -761.38536    302388.92    15.121571 
 5232000    1379.7121   -761.09254    297654.09     15.16986 
 5232500    1420.9381   -758.92791    290554.83    15.481435 
 5233000    1480.9624   -763.80571    281850.28    15.043601 
 5233500    1428.6498   -760.56937    294060.13    15.253709 
 5234000    1486.0938   -761.22917     304697.5    15.122483 
 5234500    1416.0905   -753.47654    319102.37    15.160855 
 5235000    1567.7566   -762.79222    298755.16    15.080955 
 5235500    1507.7745   -761.98658    297365.84    15.103767 
 5236000    1425.4656   -761.53383    288014.01    15.359394 
 5236500    1583.7671   -759.05469     301188.1    14.948759 
 5237000    1643.5689   -761.27263    299483.36    15.176482 
 5237500    1445.5892   -761.21161    291703.64    15.424067 
 5238000    1530.6749    -756.3706    297903.08    15.218492 
 5238500    1453.1099   -760.79951    291682.92    15.341844 
 5239000    1315.0574   -757.74839    301911.59    15.120371 
 5239500    1479.8812   -756.03204    309227.88    15.145691 
 5240000    1522.1896   -749.91803    317673.64    15.254674 
 5240500    1506.5918   -746.67124    307640.92    15.710821 
 5241000    1540.3804   -747.99725    295427.67    15.732722 
 5241500    1412.9831   -755.60173    271276.46    15.888744 
 5242000    1576.6188   -737.45631    300966.32    16.190341 
 5242500    1375.3308   -732.87674    308589.48    16.451134 
 5243000    1434.9978   -739.78586    289196.07    16.703427 
 5243500    1578.0811   -740.88928    292124.85    16.577996 
 5244000    1547.4401   -726.26404    314340.81    16.721102 
 5244500     1548.813   -739.14494    289914.98    16.725355 
 5245000     1562.028   -734.93779    304753.46    16.553447 
 5245500    1494.4694   -732.55561    316445.34    16.518644 
 5246000    1453.4514   -737.87456    286867.39    16.658549 
 5246500    1499.1362   -737.63288    291504.29    16.616351 
 5247000    1405.4907   -732.08312    311613.05    16.401356 
 5247500     1438.963   -734.65019    293143.09    16.998923 
 5248000    1615.7612   -736.08121    291378.86    16.932403 
 5248500    1336.3235   -730.79255     310319.1    16.534284 
 5249000    1495.7389   -738.49753    289925.94    16.792338 
 5249500    1555.0177   -733.91959    297215.02    16.849892 
 5250000    1461.5561   -726.53504    320744.93    16.845358 
 5250500    1470.9662    -728.5294    306750.56    16.931714 
 5251000    1526.6647   -742.44883    275980.64      16.8986 
 5251500    1640.7129   -731.91552    303591.04    16.643951 
 5252000    1508.9221   -732.39225    303307.29    16.511042 
 5252500    1556.9455   -733.67065    301711.46    16.756846 
 5253000    1414.7421   -736.48591    287009.13    16.929073 
 5253500    1306.2764   -731.95337    298681.71    16.801276 
 5254000    1495.6082   -732.12119     305906.1    16.966501 
 5254500    1467.6497   -735.81047    296241.28    16.305541 
 5255000    1583.7724   -736.59518    304941.48    16.143356 
 5255500     1445.282   -738.00177    298151.56    16.326068 
 5256000    1436.8399   -747.52773    301168.52    15.608365 
 5256500    1570.2882   -745.84414    297014.92    15.856074 
 5257000    1352.4425   -731.68034    306357.48    16.601409 
 5257500     1352.054    -737.2153    296738.74    16.521118 
 5258000    1495.0566   -740.72502    285132.31     16.77232 
 5258500    1402.7231   -733.05796    312295.42    16.585084 
 5259000    1478.9978   -731.98079    294747.11    16.774777 
 5259500    1403.3654   -739.61566    289020.15    16.793252 
 5260000    1518.7944   -728.19039    308002.85    16.929618 
 5260500    1345.4281   -730.18167    311944.44    16.750747 
 5261000    1551.4582   -725.97182    318674.11    16.938747 
 5261500    1544.8203   -737.04453    292283.25    16.706566 
 5262000    1522.1388   -735.13029    300140.38    16.620696 
 5262500    1418.5554   -728.44137    309826.25    16.576697 
 5263000    1434.4495   -742.74891     286687.5    16.226011 
 5263500    1435.5162   -743.56251    289277.63    16.131546 
 5264000    1511.8097   -738.58313    298345.83    16.346786 
 5264500    1462.5112   -734.73158    294271.82    16.792928 
 5265000    1606.5143   -744.29878    296720.66    16.129329 
 5265500     1662.698   -746.56763    298822.84    15.738724 
 5266000    1454.8889   -752.46645    302496.19    15.316685 
 5266500    1422.6178    -751.4378    288537.39    15.689419 
 5267000    1498.2243   -736.25232    301474.87    16.332774 
 5267500    1532.2012   -735.27984    305356.35    16.555055 
 5268000    1555.4127   -745.65774    290831.48    16.089642 
 5268500    1416.9957   -755.56121    292771.16    15.351284 
 5269000    1377.7702   -756.21944    292844.34    15.390682 
 5269500    1433.7598   -765.87421    293752.17    15.089017 
 5270000    1616.6562   -759.24199    310817.42    15.079517 
 5270500    1564.2096   -752.21302    321851.29    15.220525 
 5271000    1516.0302   -755.02574    311919.19    15.256791 
 5271500    1500.2327   -758.93022    299718.76    15.219594 
 5272000    1491.1162   -754.64645    282460.43    15.760003 
 5272500    1371.0075   -763.55139    279913.81    15.525865 
 5273000    1532.9769   -762.68631    294394.19    15.170606 
 5273500    1513.3241   -759.73347    310381.91    15.026246 
 5274000    1506.8076   -744.10491     335995.7    15.174772 
 5274500    1408.0079    -752.8342    314245.04    15.271227 
 5275000    1400.7808   -757.19751    311442.32    15.205738 
 5275500    1499.8914   -760.86625    305400.41    15.060624 
 5276000    1508.0261    -764.2607    286832.67    15.343404 
 5276500    1411.3966   -759.62145    288606.63    15.302069 
 5277000    1510.4443   -760.97271    284337.97    15.366215 
 5277500    1617.5597   -758.34935    295078.21    15.504961 
 5278000    1472.7048   -746.93992    319169.95    15.358126 
 5278500    1489.7383   -747.53828    322864.94    15.264871 
 5279000    1509.1401   -755.30566    315299.15    15.060436 
 5279500     1515.816   -758.33919    307537.79    15.050454 
 5280000    1497.8575   -761.96889    293443.75    15.326279 
 5280500     1513.392   -765.62955    292918.69    15.101709 
 5281000    1451.2997   -757.43416    301546.56     15.48439 
 5281500    1434.3065   -748.71303    299000.95    15.711206 
 5282000    1384.5409   -740.48578    290418.54    16.683365 
 5282500     1497.413   -732.92402     302420.9    16.608231 
 5283000    1618.9038   -727.78824    313810.64    16.505743 
 5283500    1483.7378   -745.96079    294785.92    15.996673 
 5284000    1573.9388   -736.50396    305796.62     16.27865 
 5284500     1508.766   -747.24082    297687.51     15.80665 
 5285000     1642.903   -762.88991    278413.52    15.629699 
 5285500    1429.6861   -742.91009    292790.32    15.993055 
 5286000    1570.2397   -734.76815    304213.76     16.43806 
 5286500    1580.6463   -736.00273    301890.63    16.539017 
 5287000    1449.7637   -738.18721    302421.08    16.202183 
 5287500    1574.7523   -743.98596    310495.82     15.74866 
 5288000    1507.8059   -760.17009    299500.69    15.290224 
 5288500    1471.6727   -760.97792    286779.27    15.360932 
 5289000    1402.9991    -760.2174    294848.11    15.194978 
 5289500    1444.7934    -758.3863    302293.48    15.302581 
 5290000    1359.9012    -753.9479    322939.53     14.93493 
 5290500    1580.6915   -749.42192    314058.56    15.377706 
 5291000     1530.461   -756.25701    302721.73    15.334546 
 5291500    1462.5519   -760.76965    295481.65    15.213316 
 5292000    1508.2019   -761.29452    286507.61    15.505145 
 5292500    1427.3548    -771.0079    277832.26    15.167493 
 5293000    1476.3333   -760.91114     293051.6    15.271747 
 5293500    1421.2668   -762.55548    298237.81    15.192159 
 5294000    1447.1165   -751.76296    313975.17    15.345564 
 5294500    1554.0004   -748.94787    320268.94     15.24294 
 5295000    1458.8858   -754.66666    315323.56    15.150817 
 5295500    1517.3923   -754.13074    311085.78     15.03109 
 5296000    1654.0779   -758.72367    301812.11    15.228854 
 5296500    1508.5762   -767.55533    279509.45    15.381498 
 5297000    1387.7619   -769.07157    283885.91    15.131293 
 5297500    1510.9531   -763.46326    295342.86    15.250121 
 5298000    1501.7074   -758.29203    305558.16    15.317573 
 5298500    1446.3591   -752.33227    318738.04     14.98375 
 5299000    1480.6208   -751.70706    315327.55     15.25028 
 5299500    1672.2678   -760.83184    302168.97    15.167361 
 5300000    1549.8344   -757.90343    292684.61    15.479438 
 5300500    1435.8552   -749.49226    287733.54    15.799109 
 5301000    1502.0679   -742.20619    291764.15    16.284549 
 5301500    1485.6319   -735.99221    308277.73    16.033913 
 5302000    1474.5656    -738.9827     284583.7    16.676575 
 5302500     1651.894    -733.6778    303817.22    16.445471 
 5303000    1467.5011   -738.53618    286936.48    16.997413 
 5303500    1437.4373   -731.47619    302186.01     16.45808 
 5304000    1557.8425   -727.46403    311210.06     16.86905 
 5304500    1518.3976   -737.89889    304911.06    16.371185 
 5305000    1532.7653   -739.02348    287054.01    16.706867 
 5305500    1548.0998   -735.34493       299442    16.623529 
 5306000    1626.3632   -731.23723    306797.22    16.672541 
 5306500    1395.0508   -732.26592    299342.06     16.60419 
 5307000    1653.4262   -738.41843    300600.53    16.251306 
 5307500    1377.9102   -727.31077    324611.94    16.167979 
 5308000     1495.359   -736.83034    310235.77    16.084788 
 5308500    1444.8282   -745.27106    281733.93    16.039782 
 5309000    1547.3664   -737.29355    307130.22    16.336421 
 5309500    1556.6679   -735.41938    295009.51     16.86736 
 5310000    1446.3985   -733.55176    303643.82    16.442011 
 5310500    1505.7546   -740.08553    282632.08    16.854375 
 5311000    1421.2346   -739.86044    290708.43     16.56614 
 5311500    1493.7539   -737.94855    306467.16     16.16071 
 5312000    1561.6459   -741.55279    297956.25    16.319098 
 5312500    1459.9225   -735.98368    296144.79    17.172141 
 5313000    1484.8504   -739.49669    296190.94     16.59371 
 5313500    1387.6319   -746.01455    275051.83    16.750712 
 5314000    1620.1079   -732.50722     306452.6    16.735553 
 5314500    1543.7768   -730.81303    306833.73    16.569836 
 5315000    1516.2324   -738.80456     284074.5    17.126117 
 5315500    1616.8013   -724.05273    317153.67    16.901787 
 5316000    1543.2924   -730.30119    311094.36    16.760026 
 5316500    1490.7988   -738.02378    285194.84    16.924326 
 5317000    1493.3575   -743.05947    291682.44    16.458079 
 5317500    1480.5443    -742.5138    290145.15    16.278576 
 5318000    1467.5437   -737.33803    285322.67    16.826872 
 5318500    1403.8558   -741.27981    292604.41    16.558433 
 5319000    1498.6395   -733.78407    307464.68    16.420778 
 5319500    1615.2324   -732.15636    305591.65    16.657722 
 5320000    1378.8913   -740.51768    284591.98    16.654892 
 5320500    1515.8997   -730.96808    310236.12    16.614209 
 5321000    1395.9173   -735.81699    292304.15      16.4928 
 5321500    1376.7437   -738.07779    282174.78    16.764605 
 5322000    1584.6348   -724.27548    316894.23    16.877354 
 5322500    1282.3127   -736.58507    284464.31    16.865369 
 5323000     1370.166   -736.73744    293573.01    16.646501 
 5323500    1617.8186   -728.15538    325989.42    16.350872 
 5324000    1483.6645   -736.68066    284208.98    16.852863 
 5324500    1361.0821   -737.87241     293331.1    16.828137 
 5325000    1486.6349   -726.00379    319630.97    16.775914 
 5325500    1444.8125    -726.9091    309151.85    16.720525 
 5326000     1388.022    -734.8121    297331.53    16.775226 
 5326500    1514.7689   -735.70352    300811.67    16.380023 
 5327000    1557.9497    -732.8653    299294.95    16.992374 
 5327500    1476.7063   -735.75841     294025.7    16.672394 
 5328000    1523.5909   -742.19079     307316.3    15.936523 
 5328500    1546.1516   -735.64499    304856.66    16.259691 
 5329000    1424.9539   -730.52733    302674.98     16.88572 
 5329500    1472.0788   -733.20991     298692.8    16.786795 
 5330000    1474.6898   -725.41787    315049.09    16.827134 
 5330500    1584.1009   -735.36141    296530.35    16.854822 
 5331000    1511.5862   -737.80184    285371.09    17.018883 
 5331500    1570.8827   -727.27578    304723.82    16.899917 
 5332000    1576.2687   -729.51587       310379    16.613978 
 5332500    1549.7953    -733.5596    300019.32    16.784101 
 5333000    1477.1267   -732.34554    299409.76    16.869469 
 5333500    1418.9272    -736.8401    290237.23    16.654738 
 5334000    1427.0232   -731.49257    306516.45    16.719856 
 5334500    1396.2795   -729.08261    303390.71    16.881666 
 5335000    1511.4894    -745.7126    273232.39    16.613956 
 5335500    1448.3564   -733.40152    299578.29    17.022391 
 5336000    1505.8995   -731.18016    305793.81    16.487514 
 5336500    1506.5782    -737.3785     297767.1    16.656327 
 5337000    1478.8124   -745.07471    285524.03    16.344615 
 5337500    1544.1281   -745.70055    298652.77    15.812621 
 5338000    1587.9246   -749.03367     308176.9     15.65366 
 5338500     1538.825   -750.94694    288635.35    15.946718 
 5339000    1592.7917   -746.61279    276416.13    16.384972 
 5339500     1503.505   -732.67463    306338.03    16.671242 
 5340000    1512.9288   -734.16657    295388.87     16.85355 
 5340500    1462.6465   -743.77846    285773.08     16.61456 
 5341000    1493.1145    -731.9141    301978.11     16.68416 
 5341500    1514.4484   -727.43708    305189.52    16.881821 
 5342000    1492.1566   -731.95592    297758.56    16.690958 
 5342500    1399.0962   -732.41954    305854.53    16.467282 
 5343000    1488.7465   -731.01816    306107.96    16.898756 
 5343500    1530.3471    -734.1319    292895.58    17.033842 
 5344000    1550.9193   -735.82643    295441.44    16.405702 
 5344500    1530.0375   -739.33473    293952.45    16.541271 
 5345000    1552.8808   -732.38803    304665.76    16.761704 
 5345500    1612.2988   -727.85504    317437.61     16.48741 
 5346000    1372.4374   -731.18397    306979.01    16.374247 
 5346500    1389.5549   -746.20089    274990.37    16.309392 
 5347000    1506.0742   -744.36438    285383.23    16.227522 
 5347500     1620.564   -732.90948    306806.71    16.264976 
 5348000    1617.6135   -732.03785    314206.82    16.193958 
 5348500    1430.3608   -733.96603    289866.13    16.947844 
 5349000    1675.9847   -743.32443    282861.77      16.4876 
 5349500    1527.3989   -734.18077    302876.81     16.60791 
 5350000    1562.7278   -728.57901    311858.41    16.747892 
 5350500     1471.919   -740.36408    287310.13    16.361831 
 5351000    1473.8875   -744.54364     282194.7    16.122723 
 5351500    1560.2979   -731.37584     311657.5    16.305821 
 5352000     1511.391   -739.93632     310352.4    15.968644 
 5352500    1481.3436   -743.99476    283040.86    16.548812 
 5353000    1618.3346   -737.70528    297298.83     16.45061 
 5353500    1538.3584   -734.53593    299442.24    16.731918 
 5354000    1483.7798      -737.86     288712.2    17.049041 
 5354500    1446.1668   -725.81533    325347.73    16.593876 
 5355000    1389.0995   -728.43726    303231.63    16.919276 
 5355500    1559.8331   -728.43923    310366.03    16.738678 
 5356000    1442.6936   -742.69203    279075.19    16.538502 
 5356500    1744.0732   -729.18428    315436.08    16.527655 
 5357000    1481.1097   -739.97178    284598.76    16.802544 
 5357500    1489.3757   -729.33618    306402.62    16.731008 
 5358000    1505.8941   -730.50147    308169.12    16.658868 
 5358500     1485.251   -728.57741     311053.7    16.744299 
 5359000    1481.7575   -736.02116    296179.52    16.442463 
 5359500    1662.0409   -731.43048    307148.21    16.910825 
 5360000    1488.3064   -736.83717    295188.86    16.627262 
 5360500     1575.638   -729.53997    311909.45    16.984096 
 5361000    1436.5333   -735.58064    299149.14    16.674558 
 5361500    1518.3719   -735.43401    299126.65    16.997255 
 5362000    1444.5237   -737.11844    288887.13    16.893038 
 5362500    1411.8049   -730.93085    307224.55    16.588195 
 5363000    1511.1157   -731.74283    297990.95    17.063413 
 5363500     1486.049   -739.33804    299489.88    16.383265 
 5364000     1561.681   -737.45887    293674.41    16.879547 
 5364500    1454.7358   -744.54018    286738.01    16.380998 
 5365000    1515.3615   -724.81373    319291.77    16.813946 
 5365500    1486.4939   -738.94064    287933.74    16.673147 
 5366000    1765.2372   -731.67786    300593.91    16.630704 
 5366500    1478.3584   -730.85694    309420.65    16.496974 
 5367000    1379.4457   -739.68747    288421.41    16.473194 
 5367500    1542.6298     -737.782    288116.94    16.722347 
 5368000    1463.1978   -730.21183    316764.73    16.148624 
 5368500    1444.2777   -749.77752    299545.07    15.584285 
 5369000    1592.2293   -755.61129    288551.77    15.520274 
 5369500    1575.5123    -770.8113    274065.26    15.335901 
 5370000    1408.2835   -760.71502    287580.88    15.430017 
 5370500    1631.2418   -760.93537    299690.72    15.001272 
 5371000    1548.1994   -754.54196    309282.88    15.286287 
 5371500    1537.2494   -748.11298    340675.95    14.989475 
 5372000    1487.5919   -758.19097    312070.19    15.124419 
 5372500    1470.5857   -757.21211    305473.26    15.272769 
 5373000    1577.4235   -760.31161    294748.49    15.248815 
 5373500    1573.6863   -767.23527    276035.59    15.414763 
 5374000    1340.7627   -761.20315    282141.66    15.378974 
 5374500    1568.4656   -759.53133     288527.8    15.462906 
 5375000    1492.2646   -760.20273    302888.37    15.150481 
 5375500    1490.6895   -752.29941    315301.08    15.150314 
 5376000    1601.1186   -746.39671    313088.76    15.605596 
 5376500    1523.9071   -744.08221    311264.84    15.633101 
 5377000    1422.3034    -754.3968    290085.94    15.560631 
 5377500    1620.2357   -751.51588    283294.99    15.873561 
 5378000    1591.8271   -759.75103    291647.73    15.232793 
 5378500    1539.6916   -758.72423    303483.48    15.175423 
 5379000    1560.8057   -749.98687    307731.04    15.443871 
 5379500    1577.8714   -755.70983    308517.78    14.902647 
 5380000    1395.0201   -755.35492    297168.34    15.387051 
 5380500    1427.4542   -765.08371    291213.26    15.124769 
 5381000     1431.889   -769.45302     288779.6    15.094786 
 5381500    1377.7412   -765.02411    300887.02    15.154573 
 5382000    1476.0547   -762.98805    302494.08    15.019884 
 5382500      1426.49   -747.03045    294701.77    15.713469 
 5383000    1427.5141   -749.96785    290798.73    15.707801 
 5383500    1529.7469   -763.34391     304699.5     15.02766 
 5384000    1560.9169   -751.51317    322372.17    15.141109 
 5384500    1536.9097    -752.7902    323388.04    15.096241 
 5385000    1587.2192   -763.49919    304698.09     15.03321 
 5385500    1500.7882   -761.73016     290401.7    15.327243 
 5386000    1421.1342   -770.38071    273892.52    14.999788 
 5386500    1542.0278   -755.86612    294790.05    15.423196 
 5387000    1600.7918   -760.13858    303399.31    15.264311 
 5387500    1371.6206   -756.50782    312438.99    15.295438 
 5388000    1487.7232   -753.67462    314456.94    15.177346 
 5388500    1526.0586   -754.85844    306471.91    15.207465 
 5389000    1641.3285   -766.78611    287686.95    15.201369 
 5389500    1521.4252   -763.79338    275318.22    15.510885 
 5390000    1467.9716   -752.87353    290686.42    15.491015 
 5390500    1308.2176   -742.29033    317561.03    15.583273 
 5391000    1459.7229   -742.24333    309139.81    15.702526 
 5391500    1550.0485   -742.24958    308876.71    15.789699 
 5392000    1487.8429   -759.56248    296502.46    15.352639 
 5392500    1464.8289   -769.95842    279077.19    15.191518 
 5393000    1473.4073   -763.42327    287344.27    15.115283 
 5393500    1666.2908   -754.38472    310459.68    15.063538 
 5394000    1430.3521   -757.16388     311953.4    15.028541 
 5394500    1536.2928    -755.6889     309995.9    15.052988 
 5395000    1587.0688   -753.33972    315830.22    15.179009 
 5395500    1562.2942    -759.0328    306701.17    15.071942 
 5396000    1658.3772   -760.15601    294887.74    15.412164 
 5396500    1515.5013   -757.51202    290880.33     15.60403 
 5397000    1438.7755   -770.68201    292211.84    15.070658 
 5397500    1536.7559   -757.23658    306017.88    14.940403 
 5398000    1393.0514   -761.58738    297091.22    15.111639 
 5398500    1519.5404   -763.34613    289786.21    15.205435 
 5399000     1419.197   -763.06966    283398.34    15.454768 
 5399500    1467.1177   -765.29611    285402.33    15.264592 
 5400000    1581.7142   -764.88269    295241.37    15.097057 
 5400500    1565.5091   -764.97874    302434.72    15.130471 
 5401000    1397.1643   -746.97472    326125.02    15.175949 
 5401500    1520.3324   -756.79984    321357.94    15.152651 
 5402000     1354.391   -750.68788    317252.12    15.226391 
 5402500     1516.238   -755.35895    316626.63    15.283623 
 5403000    1448.1541   -753.33272    313719.35    15.009441 
 5403500    1420.5606   -754.66027    305121.61    15.267709 
 5404000    1395.6477   -758.13784    302109.43    15.453485 
 5404500    1524.8129   -770.28108     283229.8    15.159131 
 5405000    1357.3307   -767.24834    285581.13    15.225215 
 5405500    1448.7786   -770.64863    279731.05    15.015557 
 5406000    1521.5131   -759.87614    297851.13     15.36732 
 5406500    1473.9192      -755.45    305102.05    15.266656 
 5407000    1476.7048   -760.95457    317475.36    14.958725 
 5407500    1438.5241   -752.37932    317815.27     15.24081 
 5408000    1324.3862   -750.92643    314597.26    15.291772 
 5408500    1696.4447   -756.20896    315270.89    15.191771 
 5409000    1560.3195   -750.07662    295371.01    15.716977 
 5409500    1558.8492   -751.81938    292250.51    15.719115 
 5410000    1550.9861   -758.23941    281418.33    15.700393 
 5410500    1599.3684   -737.98464    309035.68    15.932181 
 5411000    1451.8591   -736.34388     300867.2    16.374052 
 5411500    1425.2933   -726.20331    310199.93    16.832334 
 5412000      1438.22   -734.47963     302006.9    16.278383 
 5412500    1483.3142   -743.80184    291223.86    16.083201 
 5413000     1462.233   -752.08727    309895.05    15.410074 
 5413500    1377.1226   -754.67411     314526.1    15.267974 
 5414000    1642.2916   -761.02995    309541.82    15.071012 
 5414500    1477.4007   -752.25121    310292.12    15.230892 
 5415000     1443.642   -761.57829    301429.75    15.116061 
 5415500    1480.8618   -756.25651    304720.52    15.209987 
 5416000    1471.3446    -758.8291    298684.34    15.257378 
 5416500    1394.7021   -767.01886    273871.18    15.380766 
 5417000    1588.6127   -766.09527    284731.46    15.245165 
 5417500    1552.4285   -750.38559    316706.66    15.248178 
 5418000     1464.499   -750.78447    327307.78    15.077178 
 5418500    1488.2212   -759.82724    309352.96    15.039629 
 5419000    1612.5312   -764.13543    301445.59    15.155973 
 5419500    1565.6974   -759.10698    303031.25    15.115103 
 5420000    1492.6597   -744.86095    322519.68    15.319556 
 5420500    1527.7777    -755.3338    312674.56    14.974094 
 5421000    1530.2777   -762.44091    308142.11    15.119739 
 5421500     1515.225   -756.95425    308791.87    14.985115 
 5422000    1577.7351   -759.79899    293381.21    15.317596 
 5422500    1376.5163   -758.59996    292481.11      15.3099 
 5423000    1578.6115   -766.15032    286600.91    15.338433 
 5423500    1475.4305   -760.56546    288062.24    15.276689 
 5424000     1485.178   -750.90841    297572.64    15.602613 
 5424500    1490.1191   -744.85114     296875.3    15.741848 
 5425000     1463.714   -753.81554    313955.04    15.165716 
 5425500    1651.4733   -751.59925    318132.25    15.214411 
 5426000    1442.1144    -758.3905    308186.02    15.043022 
 5426500    1420.4238   -760.09602    301001.67    15.094606 
 5427000    1519.5255   -765.79367    294004.33     15.06276 
 5427500    1361.3527   -762.90749    287828.44    15.455538 
 5428000    1411.9808   -770.03801    283427.87    15.146209 
 5428500    1463.0835   -764.36306    291444.91    15.316173 
 5429000    1419.5525    -764.1912    297634.95    15.015204 
 5429500    1493.7693   -752.46626    314069.48    15.361405 
 5430000    1551.7239   -752.72179    310149.07    15.230723 
 5430500     1534.417   -759.97934    305711.53    15.207259 
 5431000    1453.7501   -760.56455    290688.17    15.441723 
 5431500    1511.5024   -771.08649    281367.52    15.037358 
 5432000    1482.5045   -763.44877    286926.75    15.383663 
 5432500    1417.5736   -763.40133    293896.97    15.390502 
 5433000    1492.1449   -766.03109    292573.25    15.175098 
 5433500    1623.7086   -761.31739    296366.25    15.431047 
 5434000    1640.1785   -745.26835    306544.86    15.860388 
 5434500    1490.0822   -746.36179    314941.81       15.455 
 5435000    1615.8498   -753.60391    318100.93    14.934084 
 5435500    1623.0967    -758.4092    300092.63    15.341148 
 5436000    1528.1005   -757.07146    292782.43    15.376692 
 5436500    1486.7265   -767.47579    282990.14    15.181085 
 5437000    1505.7065   -763.99375    279559.45    15.339628 
 5437500     1534.235   -764.24669    290064.68    15.290104 
 5438000    1404.9998   -757.22236    303751.49    15.235917 
 5438500    1464.1787   -755.69904    310797.98    15.048372 
 5439000    1445.5619   -757.61703    313171.37    15.110326 
 5439500    1540.6138   -751.34242    314134.49    15.016037 
 5440000    1488.1815   -758.22633    295649.23    15.366456 
 5440500    1656.0671   -761.71884    284939.04    15.389413 
 5441000    1453.5037   -757.21327    278254.69    15.663156 
 5441500    1468.7669   -759.82327    284408.48      15.4833 
 5442000    1478.0218   -765.81168    295441.39    15.116485 
 5442500    1482.9953     -748.474     320595.9    15.151287 
 5443000    1643.6225   -744.51415    333393.72     15.22283 
 5443500    1548.3885   -752.33066    318047.78    15.188022 
 5444000    1409.9296   -748.17446    316897.37    15.325888 
 5444500    1513.8582   -752.86251    317721.27    15.252975 
 5445000    1408.5893   -762.28915    294629.32    15.342431 
 5445500    1493.9102   -763.46123    291368.74    15.349989 
 5446000    1426.1717   -770.41137    285027.25    15.106914 
 5446500    1459.3838   -762.95716    285907.36    15.396608 
 5447000    1507.2439   -760.44515    294237.78    15.238924 
 5447500    1447.7037   -759.10529    301087.09    15.170929 
 5448000    1557.5652   -754.10132     318000.8    15.008235 
 5448500    1539.4969   -746.37205    319237.13    15.345351 
 5449000    1643.6348   -758.99655    312751.95    15.096914 
 5449500    1549.7845   -752.77569    319579.79    15.246716 
 5450000    1668.8244   -747.05374    294178.69    15.768999 
 5450500    1428.8848    -754.1394    283742.29    15.747519 
 5451000    1524.1006   -751.26806    298199.61    15.568952 
 5451500    1457.7363    -753.2843    319009.96    15.267204 
 5452000    1467.0557   -753.83679    316855.72    15.261454 
 5452500    1407.4719   -753.49474    309318.72    15.291191 
 5453000    1696.5519    -755.9097     302788.8    15.478689 
 5453500     1642.111   -751.55118    289749.93    15.710283 
 5454000    1473.0111   -746.57358    286989.58     16.04103 
 5454500    1606.0566   -742.27304    286167.45    16.182199 
 5455000    1426.3492   -743.05018    296716.04    16.128373 
 5455500    1486.5886   -734.23417    309215.81    16.335404 
 5456000    1509.6573   -731.87995    311702.92    16.792505 
 5456500    1337.4556    -737.2227    291786.28    16.535009 
 5457000    1547.0989   -733.16447     304238.4    16.754794 
 5457500    1361.4701   -727.53777    309269.55    16.649804 
 5458000    1457.4763   -736.14995    294608.35    16.536029 
 5458500    1438.1389    -735.8673     299590.2    16.624352 
 5459000    1563.7176    -733.8124    308197.33    16.388938 
 5459500    1484.1997   -744.95612    282649.87     16.33292 
 5460000    1482.7188   -724.50698    329040.86    16.384254 
 5460500    1629.3689   -738.41177    298297.47    16.501889 
 5461000    1491.1849   -742.78711    288863.14    16.471229 
 5461500    1448.8661   -736.44861    287018.74    16.810015 
 5462000    1514.7768   -730.56538    304039.75    16.927809 
 5462500    1541.1417   -733.66543    303164.88    16.346929 
 5463000    1544.1038   -745.20009    283655.03    16.132794 
 5463500    1514.5077    -742.7704    296247.05    16.114083 
 5464000    1606.1663   -727.36411    311459.88    16.684287 
 5464500    1562.6308   -734.73106    295016.66    16.835941 
 5465000    1445.2638   -742.18319    284171.77    16.493852 
 5465500    1510.6597    -728.4067    321688.72    16.383041 
 5466000    1534.6884    -736.5845    291221.23    16.783627 
 5466500    1443.5282   -732.97688     292114.9    17.017122 
 5467000    1514.9118   -736.59203    300316.54    16.463987 
 5467500    1455.5965   -737.81578    299730.58    16.586126 
 5468000     1480.769   -744.50035    291581.76    16.138831 
 5468500    1457.6381   -745.95114    304136.07    15.606357 
 5469000    1596.8231   -744.82226    308536.71    15.666291 
 5469500    1410.9572   -738.36825    322372.55    15.717685 
 5470000    1527.2643   -739.19245    294966.67     16.43946 
 5470500    1443.9129   -730.49268    312330.45    16.525721 
 5471000     1531.381   -735.61476    293278.95    16.682963 
 5471500    1638.1305    -726.9976    319154.77    16.805744 
 5472000    1421.0123   -734.91631    281159.63    17.090158 
 5472500    1546.9823   -734.47678    299835.32    16.839594 
 5473000    1506.8208   -716.56206    326355.85    16.764138 
 5473500    1495.1185   -741.05172    290318.46    16.554492 
 5474000    1486.7726   -737.19325    293004.82    16.718838 
 5474500    1611.3431   -733.71015    307002.73    16.358602 
 5475000    1460.6057   -733.36328     311040.7    16.290515 
 5475500    1500.1592   -753.03084    278063.03    16.184402 
 5476000    1602.2415   -743.37775    289527.13    16.376657 
 5476500     1496.025   -729.19301    307729.42    16.556684 
 5477000    1577.5698   -737.48735    290207.74    16.972788 
 5477500    1499.3337   -728.46602    313488.98    17.037053 
 5478000    1524.6348   -725.42763       312299    16.822722 
 5478500    1461.6227   -735.57647    298263.44    16.788914 
 5479000     1505.461   -733.21017    302251.22    16.707004 
 5479500    1437.0375   -744.64785    288309.59    16.149919 
 5480000    1399.6547   -741.96275    303765.27    16.082087 
 5480500    1568.5465   -736.63771    301126.44    16.369436 
 5481000     1529.398    -735.5833     295058.3    16.818176 
 5481500    1351.0036   -742.12499    293242.42    16.106066 
 5482000    1555.2068    -753.4633    293604.41    15.744443 
 5482500    1444.2306   -756.88544     303929.9    15.272283 
 5483000    1512.2134   -744.03849    325298.94    15.459349 
 5483500    1565.5508   -754.04317    316907.18    15.159436 
 5484000    1545.5723   -751.77035    305721.45    15.416005 
 5484500    1493.1072   -761.78336    299418.31    15.170162 
 5485000       1603.6   -765.11068    288210.46    15.262407 
 5485500     1456.187     -766.153    279265.87     15.26125 
 5486000    1541.0216   -757.85423     291124.2    15.438045 
 5486500    1517.6248   -763.20183    289476.27    15.418779 
 5487000    1498.7276   -767.13959    274383.87    15.428429 
 5487500    1415.3756   -761.45102    292632.99    15.252638 
 5488000    1431.9891   -756.69167    303473.66    15.272075 
 5488500    1495.8962   -740.77376       324460    15.362407 
 5489000     1734.037   -739.26057    312035.87    15.823596 
 5489500    1540.5136   -755.57972    305479.18    15.265903 
 5490000    1584.7035   -760.13928    299590.98    15.017516 
 5490500    1657.7709   -749.95378    292621.79    15.638702 
 5491000    1463.2021   -749.65486    291372.63    15.867307 
 5491500    1563.3352   -760.94109    301643.76    15.034761 
 5492000    1500.3276   -757.19667     309282.4    15.229603 
 5492500    1524.4078   -749.54234    323296.35    15.184763 
 5493000     1481.823   -745.27803    323543.18    15.282298 
 5493500    1486.8813   -754.41582    306158.36    15.397259 
 5494000    1590.8363   -759.38553    297897.65    15.398994 
 5494500    1485.3202   -760.19219       296133    15.184491 
 5495000    1499.9522   -754.95068    299781.75    15.463937 
 5495500    1406.2611   -767.43029    291092.63    15.093958 
 5496000    1383.9345   -756.43754    303659.99    15.260931 
 5496500    1508.7863   -762.71136    295503.93    15.224453 
 5497000    1558.9252   -756.30994    302490.65    15.355167 
 5497500    1475.4181   -757.25177    311605.92    14.911252 
 5498000    1671.7987   -752.60563    314117.12    15.305234 
 5498500    1581.7588   -760.54225    301683.37    14.973996 
 5499000    1514.6144   -760.91427    283518.99    15.580142 
 5499500     1502.229   -761.14759    290330.75    15.441766 
 5500000    1592.9096   -753.90005    295011.19     15.43083 
 5500500    1604.6501   -766.41835    289017.81    15.208369 
 5501000    1452.6486   -748.41222    302986.11    15.530529 
 5501500    1442.7405   -744.67148    316723.07    15.457812 
 5502000    1647.0229   -755.28778    310640.19    15.104888 
 5502500    1430.1403   -754.55028    310809.36    15.225575 
 5503000    1514.8144    -762.6043       294757    15.198775 
 5503500    1530.5508   -768.03809    288992.43    15.154489 
 5504000    1385.7075   -765.14634    293817.15    15.030176 
 5504500    1600.0893    -760.5799    294901.92    15.331027 
 5505000    1524.5675   -757.91306    308541.93    15.140011 
 5505500     1560.603   -759.35085    309398.16    15.056069 
 5506000    1498.6408   -753.15326    310606.84    15.246762 
 5506500    1561.2428   -746.22336     331460.5    15.202383 
 5507000    1559.2062   -746.96618     308030.5     15.55293 
 5507500    1539.2875   -745.11462    296440.72    15.971383 
 5508000    1452.2683   -737.21697    295824.98    16.587652 
 5508500    1614.7892   -728.24983     319145.6    16.336438 
 5509000    1473.9303   -739.41209    304126.55    16.021968 
 5509500    1505.6976   -732.52087    298396.53    16.680485 
 5510000    1397.6314    -731.4296    297830.05    16.937575 
 5510500    1379.9883   -729.22802    312433.28    16.249892 
 5511000    1540.0491   -737.31379    319799.02    16.021664 
 5511500    1579.5685   -745.09243    278395.85    16.433267 
 5512000    1528.7105   -736.75747    301142.24    16.641162 
 5512500    1527.4087   -736.82702    294309.71    16.716015 
 5513000    1606.7405   -722.91332    315386.82    16.800214 
 5513500    1493.0738   -733.35267    296425.61    16.752908 
 5514000    1516.0638    -729.9031    313983.93    16.249905 
 5514500    1483.9319   -736.29691    310922.84    16.153056 
 5515000    1453.6729   -734.76156    306302.23    16.652715 
 5515500      1467.16   -738.65126    293503.28      16.5193 
 5516000    1451.2802   -736.41861    298673.01    16.653511 
 5516500    1495.6888   -731.70762    309826.36    16.320655 
 5517000    1459.6013   -741.20342    289440.81    16.711575 
 5517500    1597.5953   -734.32755    304578.39    16.557503 
 5518000    1486.6364   -733.37212    308710.84     16.71433 
 5518500    1402.5978   -744.83214    278202.51    16.602176 
 5519000     1514.507   -733.03994    305314.87     16.96596 
 5519500     1472.834   -731.08524    310510.02    16.538184 
 5520000    1484.2017   -736.37096    293924.41    17.174418 
 5520500    1492.0526   -739.82448    290331.35    16.384367 
 5521000    1526.0211   -737.70211    309747.47     15.99399 
 5521500    1638.9489   -740.52597    288736.03    16.503064 
 5522000    1513.5459   -730.27737    316475.11    16.841527 
 5522500    1645.4056   -734.47069    306444.72     16.45401 
 5523000    1324.6739   -733.79933    295754.21    16.618854 
 5523500    1490.8215   -735.47733    306543.83    16.550682 
 5524000    1476.5784   -736.72023    299333.96    16.599063 
 5524500    1482.0998   -724.53862    325437.94    16.405414 
 5525000    1498.9198   -733.57343    306477.33    16.654802 
 5525500    1533.1919   -741.29133    281424.33    16.770574 
 5526000    1516.3871    -738.6122    294803.29    16.545707 
 5526500    1459.4133   -741.97717    282850.13    16.620405 
 5527000    1519.1137   -734.45414    311678.24    17.116693 
 5527500    1619.8817   -731.56678    304792.34    16.507181 
 5528000    1538.2959    -732.8336    304053.27    16.854198 
 5528500    1384.4305   -728.83312    302643.76    16.739385 
 5529000    1540.5289    -738.5418    285505.76    16.831785 
 5529500    1533.8664   -720.96151    326655.93    16.777358 
 5530000     1753.259   -726.07909    307027.48    16.882008 
 5530500    1531.5307   -738.25955    304737.76    16.340422 
 5531000    1495.3687   -738.10461    281658.36     16.59904 
 5531500    1537.1874   -738.01544    286674.67    16.860666 
 5532000    1586.6769   -731.09528    312974.17    16.808914 
 5532500    1493.3173   -729.66408    309477.73    17.026977 
 5533000     1500.011   -726.36628    313876.53    16.422108 
 5533500    1452.9847   -721.63817    325019.04    16.680957 
 5534000    1466.0981   -739.23651    284473.03    16.826697 
 5534500    1492.3905   -740.00438    293216.21    16.499861 
 5535000    1692.5605   -730.17878    309010.19    16.858678 
 5535500    1533.5378   -729.68421    311570.69    16.720412 
 5536000    1444.5354    -731.6282    306010.43    16.721454 
 5536500    1670.0924    -738.6274    295224.68     16.68752 
 5537000    1519.4009   -735.26658    292980.32    17.055449 
 5537500    1588.5704    -726.5198     326670.3    16.374814 
 5538000    1602.6887   -735.64981    293700.04    16.902497 
 5538500    1485.8626   -729.85094    306404.79    17.001983 
 5539000    1531.9394    -734.2591    302469.73    16.446554 
 5539500    1542.1642   -731.75561    309268.67    16.643425 
 5540000    1558.8846   -745.59497    288209.72    16.165079 
 5540500    1480.9602   -747.92827    297892.15    15.659469 
 5541000    1282.1382   -748.38816    300701.06     15.73188 
 5541500    1510.6967   -747.24497    308532.06    15.596655 
 5542000    1500.2918   -751.34762    314571.62    15.235127 
 5542500    1549.7661   -742.54509    303624.16    15.885329 
 5543000    1427.1199   -752.38321    299937.96    15.559843 
 5543500    1463.0837   -764.60548    300046.11    14.999112 
 5544000    1416.4053   -757.72391    293033.72    15.526483 
 5544500    1438.6733   -760.07944    292023.86      15.4008 
 5545000     1535.235   -763.70984     297192.7    15.134479 
 5545500     1459.901    -751.7468    314532.32    15.352408 
 5546000    1623.0834   -750.85685    309921.06    15.351642 
 5546500    1484.1863   -745.58518    303990.12    15.671319 
 5547000    1474.2642   -752.61472     291254.9    15.654677 
 5547500    1449.8698   -759.37323    279116.14    15.663072 
 5548000    1452.0428   -756.18437    297837.91    15.504046 
 5548500    1527.7495   -756.27284    311024.88      15.3262 
 5549000    1507.3391   -750.35176    318872.18    15.251167 
 5549500    1461.3373   -758.23304    313120.99    15.083086 
 5550000     1504.954   -758.00915    310357.34    15.108686 
 5550500    1499.0618    -750.9034    303652.76    15.395557 
 5551000    1554.9658   -752.76517    293376.91    15.604549 
 5551500    1601.3868   -738.60872    312094.16    15.803014 
 5552000    1630.8393   -739.05318    324905.25    15.596461 
 5552500     1446.595   -747.04758       313412     15.47471 
 5553000     1389.728   -763.53002    299221.98    15.171585 
 5553500    1395.2743   -755.43615    288510.16    15.559482 
 5554000     1464.201   -751.51958    282584.45    15.787985 
 5554500    1398.0837   -767.27974    285771.34    15.376214 
 5555000    1544.7996   -757.95434     301288.9    15.395404 
 5555500    1486.2815   -755.47854    312756.84     15.06339 
 5556000    1550.8584   -763.19558    306789.76     15.07255 
 5556500    1597.8715   -762.46449    299228.05    15.167173 
 5557000    1509.0149   -764.46731    289564.61    15.290384 
 5557500    1462.1164   -766.23282    281053.57    15.304645 
 5558000    1641.8021   -757.38311     293169.6    15.441107 
 5558500    1497.7486   -746.43691    305587.97     15.63732 
 5559000    1390.9843   -747.64169    302658.37    15.600355 
 5559500    1622.7064   -772.66822    282437.55    15.162864 
 5560000    1567.6941   -760.85194    279818.09    15.634995 
 5560500    1315.0881   -755.59455       289329    15.681754 
 5561000    1668.2077   -748.22357    300410.58    15.714587 
 5561500     1482.861   -744.30915    311819.08     15.69006 
 5562000     1431.562   -742.50689    304569.95    15.753903 
 5562500     1402.762   -752.68147    288084.73    15.890891 
 5563000    1528.0864   -757.58479    294833.06    15.270212 
 5563500    1513.6908   -743.02239    302632.46    15.790566 
 5564000    1431.9327   -742.94261    300975.47    15.765888 
 5564500    1529.9526   -758.71456    309919.66    15.055765 
 5565000    1572.9412   -764.60591    299831.92    15.062471 
 5565500    1541.8451   -767.22014    285993.27    15.083562 
 5566000    1315.9101   -752.14414    302175.38    15.441552 
 5566500    1432.9816   -760.49329    303359.09    15.050711 
 5567000     1525.201   -756.94301    307566.32    15.239438 
 5567500    1428.2286   -744.01631    320985.99    15.447123 
 5568000    1520.7332   -739.78494    311880.75    15.786319 
 5568500    1308.2447   -748.27133    284228.34    15.904693 
 5569000    1476.0199   -761.63596    287939.85     15.32764 
 5569500     1502.978   -765.05331    289314.07    15.367032 
 5570000    1329.6818   -762.92309    297577.62    15.018323 
 5570500    1643.4924    -749.1357    305165.01    15.457672 
 5571000     1681.376   -743.92435    308513.08    15.610878 
 5571500    1454.7386   -752.64727    294227.31    15.636136 
 5572000     1529.113   -760.58948    284070.06    15.510367 
 5572500    1372.7884   -763.25496    288560.74    15.081236 
 5573000     1558.037   -759.91859    302648.83     15.27333 
 5573500    1492.3931   -747.93957    317527.51    15.173838 
 5574000    1476.3862   -750.64613    321873.14    15.152463 
 5574500    1506.7588   -754.65118    315614.87    15.185926 
 5575000    1554.6311    -756.9834    318491.08    14.999155 
 5575500    1390.3086   -756.68046    312985.91    15.194233 
 5576000    1467.7793   -759.28796     308292.9    15.103944 
 5576500    1604.9562   -768.33443     289777.3    15.090546 
 5577000    1509.9356   -767.53834    281273.11     15.22513 
 5577500    1451.3958   -767.95592    286468.26    15.045619 
 5578000    1480.4569   -760.82167    294398.65    15.394321 
 5578500    1591.1914   -760.61267    308676.84    14.917811 
 5579000    1546.6639    -755.6723    306162.52    15.352252 
 5579500     1627.934   -757.69673    307408.03    15.065341 
 5580000     1489.484   -759.15054    310688.94    15.073838 
 5580500    1667.0582   -764.28037    293770.07    15.205741 
 5581000    1418.8621   -763.29415    290993.56    15.264766 
 5581500    1486.9575   -759.89544    285867.51    14.950092 
 5582000    1446.9532    -759.7891    300038.34    15.180586 
 5582500    1466.3485   -762.64237    294219.59    15.169447 
 5583000    1645.5068   -762.72701    297193.38    15.051682 
 5583500    1401.3252   -770.00413    276234.19    15.079925 
 5584000    1451.2381   -771.45776    278734.49    15.243456 
 5584500    1411.2781   -765.70734    288789.13     15.14352 
 5585000    1481.7758   -764.69061    283313.25    15.357755 
 5585500    1503.1417   -765.63265    284015.43     15.19296 
 5586000    1623.6668   -766.39259     293991.5    15.228102 
 5586500    1541.0326   -762.74777    307193.94    15.026127 
 5587000    1540.9383    -758.0519    310191.39    14.966787 
 5587500    1515.3466   -754.26672     319809.1     15.28109 
 5588000     1510.995   -760.68184    310726.59    15.044732 
 5588500    1365.3884   -753.17016    293155.45    15.537925 
 5589000    1425.2379   -743.52393    290529.01     16.01415 
 5589500    1466.8029   -732.54477     317389.3    16.351124 
 5590000    1657.3245   -736.09788    290608.22    16.616885 
 5590500    1458.0533   -732.09328    316582.33    16.074599 
 5591000    1598.0425   -747.33546    302994.67    15.712395 
 5591500    1677.7515   -756.17941    287470.36    15.723841 
 5592000    1532.1323   -746.94239    304824.41    15.734055 
 5592500    1506.0521   -750.31991    302508.43    15.485392 
 5593000     1680.088   -750.69981    290223.02     15.79716 
 5593500    1409.5592   -755.22288     276711.6    15.701597 
 5594000    1551.4791   -748.43176     292110.7    15.756907 
 5594500    1517.1156   -752.48089    296452.15    15.557219 
 5595000    1556.0781   -730.51452    328060.88    15.845037 
 5595500    1459.0411   -738.88536    300447.95     16.25183 
 5596000     1478.331   -746.36459    281336.32    16.151962 
 5596500     1694.839   -742.84104    307988.67    15.875923 
 5597000    1560.9608   -756.92409    305850.25     15.23799 
 5597500    1503.1805   -764.03035    305329.38    15.057905 
 5598000    1467.7934   -754.74457    304891.36    15.519414 
 5598500    1412.4003   -749.56038    289685.55    15.885038 
 5599000    1386.9696   -747.35762    285731.88    16.010897 
 5599500    1655.9521   -730.43375    318703.56    16.430629 
 5600000    1598.3646   -734.77769    294722.61     16.52006 
 5600500    1311.9991   -730.59261    302457.88    17.007713 
 5601000    1427.6728   -739.89421    289584.69    16.530751 
 5601500    1586.0006   -728.33604    306693.13    16.909538 
 5602000    1366.1258   -735.53312    300101.73    16.732368 
 5602500    1493.5767   -738.97265    287218.98     16.79489 
 5603000    1590.8216   -725.43082    322620.73    16.518227 
 5603500    1484.5258    -732.1797    301509.26    16.465302 
 5604000    1470.5763   -744.34602    276288.07    16.558018 
 5604500    1459.2717   -733.11947     296525.4    16.861307 
 5605000    1495.1246   -730.78041    316666.85    16.549626 
 5605500    1559.1585   -735.57615    290921.34    16.634603 
 5606000    1456.4136   -740.36657    289372.98    16.483302 
 5606500    1524.1118    -726.8942    321937.34    16.686534 
 5607000    1486.8108   -737.88202    286380.85    16.898586 
 5607500    1420.0298   -735.53626    289740.38     17.05015 
 5608000    1519.1388   -735.57694    291707.72    17.025737 
 5608500    1638.9733   -734.83046    305070.13    16.667475 
 5609000    1522.2678   -726.76219     313974.6    16.757412 
 5609500    1456.2898   -729.65862    312279.85    16.619428 
 5610000    1458.5064   -738.36669    295280.81    16.608079 
 5610500      1404.37   -738.65012    283246.41    16.951331 
 5611000    1616.7473   -728.54756    312203.17    16.930141 
 5611500    1500.6939   -735.67655    299216.67    16.587258 
 5612000    1487.9103   -737.56252    285948.75    16.984833 
 5612500    1559.9823   -738.02934    300972.69    16.665271 
 5613000    1694.8172   -737.47313    299961.48    16.608745 
 5613500    1520.2355   -734.92214    296489.65    16.853389 
 5614000    1702.1195   -729.22681    307356.75    17.021471 
 5614500    1570.7324   -726.97888    309744.32    16.758819 
 5615000    1582.9525    -738.3359    284642.63    16.947562 
 5615500    1474.0347   -736.92865    284708.18    16.956147 
 5616000    1461.0839   -736.11278    294249.49    16.860849 
 5616500    1475.9592   -720.44468    326093.54    16.608748 
 5617000    1491.6361   -736.52503    291886.19    16.659835 
 5617500    1603.8564   -741.36137    290058.68    16.480576 
 5618000    1483.4115   -727.91768    317802.64    16.623117 
[...]
24848000    1482.6312    -745.6244    287433.73    16.407867 
24848500    1462.7876   -730.69369    314601.86    16.186949 
24849000    1533.4851   -739.04632    309623.15    16.103363 
24849500    1545.1557   -741.80295    302697.67    16.095423 
24850000    1487.4695   -754.50334    284159.86     15.72257 
24850500    1519.5312   -756.41351    289070.94    15.701079 
24851000    1589.4497   -768.84154    288273.17    15.119767 
24851500     1386.276   -768.03383    291260.95    15.134192 
24852000    1426.4533   -762.53987    296327.78    15.032755 
24852500     1528.817   -756.06842    304289.94    15.313427 
24853000    1426.8672   -751.59394    309559.76    15.314786 
24853500    1344.3899   -752.03722    322460.47    15.000287 
24854000    1578.3068   -760.38676    299919.32    15.059815 
24854500     1530.783    -762.7043    293316.71     15.23963 
24855000    1450.3027   -768.00132    277934.11    15.426841 
24855500    1400.2152   -767.52681    278764.69    15.301758 
24856000    1606.7344   -764.08795    288504.48    14.951104 
24856500    1424.1135   -765.20018    295165.76    15.085709 
24857000    1521.7659   -762.20788     298892.4    15.296193 
24857500    1489.8827   -741.77529    329780.68    15.513034 
24858000    1484.0123   -734.53244    321058.39    15.688835 
24858500    1611.8069   -747.01273    299927.98    15.688181 
24859000    1430.9649   -756.53806    288526.24    15.647118 
24859500    1600.3411    -764.9132    290137.55    15.141941 
24860000    1393.2307   -759.85087    301170.88    15.043823 
24860500    1542.9425   -751.25486    311199.02    15.369239 
24861000    1711.1581   -751.44449    305663.97    15.582301 
24861500    1591.2423   -750.82506    290323.84    15.793338 
24862000    1500.6366   -740.74216    292268.46    16.406981 
24862500    1446.3869   -734.41092     301680.8    16.642587 
24863000    1469.7322   -735.07346    302647.21    16.478793 
24863500    1495.8951   -755.37402    269633.23    16.213254 
24864000    1397.1821   -737.91285    305336.17    16.226338 
24864500     1361.055   -746.19505    293920.65    15.957133 
24865000    1516.9747   -759.51752    289554.22    15.471646 
24865500    1576.1645   -762.98557    277440.82    15.445364 
24866000    1503.9201   -741.47226    298275.29    15.890949 
24866500    1517.0317   -738.44474    321381.88    15.629117 
24867000    1458.8093   -757.81399    305773.71    15.222515 
24867500    1574.0103    -756.4204    302771.71    15.315604 
24868000    1578.6512   -767.16494    284678.87    15.342932 
24868500    1389.1133   -748.65297    283372.62    15.863215 
24869000    1461.1186   -748.96818    292667.03    15.832474 
24869500    1416.4493   -735.06855    301628.78    16.199263 
24870000      1466.45   -737.42329    288171.77    16.790962 
24870500    1558.3064   -728.51854    306898.03    16.793129 
24871000    1324.2435   -735.09548    297588.91    16.604674 
24871500    1495.8872   -742.24851    284407.64    16.423582 
24872000    1493.8736    -730.5627    323928.27    16.073012 
24872500     1330.858    -738.3598     293522.2    16.435839 
24873000    1466.8306   -737.42716    292578.38    16.691403 
24873500    1474.7302   -731.84008     305320.5    16.591054 
24874000     1584.153   -732.40808    306944.83        16.76 
24874500    1551.4918   -736.50792    297107.87    16.438845 
24875000    1571.6385    -728.9617    309718.51    16.694905 
24875500    1689.1439   -733.88329    304411.36    16.783918 
24876000    1406.1439   -740.65254    291817.58    17.018097 
24876500    1664.4688   -739.83388    291352.95    16.638967 
24877000    1607.2434   -725.65535    317323.49    16.532168 
24877500    1509.4781   -734.32092    296026.72    16.855772 
24878000    1473.9932   -736.46701    290145.61    16.835554 
24878500    1521.7748   -741.11325     280059.3    16.996426 
24879000    1452.6405   -734.40838    309911.55    16.394377 
24879500    1557.4765   -731.30007    314479.85    16.548807 
24880000    1438.8285    -740.5201    286456.42    16.087566 
24880500    1453.7852   -738.15375    300267.01     16.23233 
24881000    1596.6683   -727.59805    314000.94    16.698961 
24881500    1619.5656    -725.2103    317888.72    16.810812 
24882000    1574.6802    -731.5973    301363.98    16.695939 
24882500    1494.1401   -741.32584    291669.28    16.475025 
24883000    1549.3385   -725.30672    326907.13    16.330186 
24883500    1555.1555   -742.54823    281660.03    16.659866 
24884000     1531.589   -737.97342    298552.67    16.475145 
24884500    1542.8638   -725.44347     312624.8    16.936062 
24885000    1524.1222   -737.80411    301228.33    16.455742 
24885500    1567.9747   -739.39387    287097.36    16.630433 
24886000    1525.7741   -731.41192    310984.16    16.509166 
24886500    1561.1767   -732.46929    312564.38    16.426856 
24887000     1381.507   -741.06034    280306.17    16.593976 
24887500    1483.4639    -729.1775    313897.84    16.620601 
24888000    1419.0606   -734.07259    302510.47    16.445263 
24888500    1479.6907   -740.96858    279224.88     16.80397 
24889000    1519.2426   -731.68871    318510.25    16.379327 
24889500    1469.4944   -725.03958    322533.75    16.586436 
24890000    1500.0148   -744.81571    274406.07    16.392672 
24890500    1579.7583   -741.05569    294943.94    16.134179 
24891000    1529.8737   -740.13199    300166.06    16.182887 
24891500    1462.1117   -732.12589    327737.15    16.041636 
24892000    1536.4075   -735.34566    295783.44    16.887551 
24892500    1538.4917   -734.39787    296198.19    16.987917 
24893000    1436.2708   -737.45759    287298.14    16.956725 
24893500    1519.1009   -733.24145    302616.96    17.068678 
24894000    1544.9482   -734.09228    311932.91    16.587057 
24894500    1559.6466   -737.62992    290724.91    16.888312 
24895000    1274.7997   -735.00843    286420.27    16.968384 
24895500    1561.3862   -733.00253    308421.14     16.65846 
24896000    1532.0144   -732.44602    306482.21    16.468851 
24896500    1460.1309   -733.84474    295072.94    17.033667 
24897000    1492.3674   -732.39155    302365.26    16.890592 
24897500    1423.7566    -731.2992    298116.77    16.991234 
24898000    1600.1269   -731.87209    311883.29    16.626665 
24898500     1624.053   -733.03624    304360.75    16.595031 
24899000    1401.0662   -736.66841    295285.31    16.475425 
24899500    1440.7689   -732.54139     302114.5    17.006682 
24900000    1368.2381   -729.64953    312227.47    16.493038 
24900500     1517.012   -731.90981    303755.05    16.717852 
24901000    1491.5228   -734.91573    296533.51    16.802915 
24901500    1643.3482   -724.85568    329538.88     16.47608 
24902000    1589.5403   -736.59373     291589.9    16.756625 
24902500    1490.4784   -733.57825    295715.28    16.879483 
24903000    1577.7416   -723.55658    320200.77    16.394468 
24903500      1544.81   -735.37994    305064.78      16.7907 
24904000    1499.8416   -739.67802    286092.16    16.877647 
24904500    1579.4926   -734.50479    289407.25    16.970168 
24905000    1362.1308   -727.64174    307826.15    16.909358 
24905500    1426.9002   -735.72605    311327.53    16.259857 
24906000    1532.1552   -744.63336     291105.2       16.332 
24906500    1545.2635   -739.39232    308950.94    15.906319 
24907000    1498.4131   -733.74014    307160.93     16.24555 
24907500    1569.7808    -739.0039    311919.19    16.095915 
24908000    1433.5746    -735.3725    287619.77    16.653095 
24908500     1401.208   -735.95882     297992.1    16.444639 
24909000     1716.042   -722.72918    332023.78    16.535601 
24909500    1519.0227   -735.34915    298885.52     16.65013 
24910000    1414.5089   -734.16712    304004.33    16.493539 
24910500    1605.8181   -737.49938    295483.28    16.920697 
24911000    1476.5464   -729.64134    306143.57    16.884631 
24911500    1487.6438   -735.67195    303958.77    16.431374 
24912000    1509.1538   -732.31351    299968.19    16.567741 
24912500    1479.5384   -733.68791    302586.17    16.544134 
24913000    1464.6499   -740.68496    284585.95     16.65135 
24913500    1568.6367   -730.82098    318579.07    16.536893 
24914000    1403.0582    -728.6945    317678.93    16.539875 
24914500    1496.1549   -739.26801    290192.04    16.697683 
24915000    1391.5336   -736.20891    287314.19    16.801906 
24915500    1480.3739   -731.18433    304339.16    16.545022 
24916000    1473.1654   -729.39557    312879.72    16.430641 
24916500    1452.7164   -733.01518    303359.52    16.585761 
24917000    1482.1074   -725.69376    314965.98    16.756717 
24917500    1406.4842   -739.43459    309446.58    15.985989 
24918000    1580.5829   -737.70384    297358.21    16.299985 
24918500    1459.4003   -738.00604    290359.73    16.699452 
24919000    1507.0974    -733.8191    305681.05     16.60217 
24919500    1557.7325   -737.32702    289964.83    16.803646 
24920000    1491.6962   -740.34321    292842.57    16.672586 
24920500     1468.128     -726.509    319347.48    16.604394 
24921000    1450.2052   -733.18495    292374.69    16.824036 
24921500    1410.0148   -734.30261    298712.95    16.481586 
24922000    1672.8509   -729.70254    312527.09    16.664576 
24922500    1446.1786   -739.46817    292941.39    16.410978 
24923000    1474.7768   -730.61281    301531.08    16.892166 
24923500     1410.768   -743.96307    281979.31     16.58725 
24924000    1510.5279   -738.44203    295981.78    17.078963 
24924500    1508.0811   -732.56227    307775.17    16.603834 
24925000    1607.5552   -744.11122    285059.66    16.424506 
24925500    1531.3486   -745.20231    296306.78    16.113994 
24926000    1570.3651   -741.31077    302599.26    16.077327 
24926500    1423.0551    -736.7806    304348.27    16.130772 
24927000    1400.9916    -745.5099    286200.84    16.157554 
24927500    1623.4746   -747.35981     289095.8    16.061593 
24928000    1431.2502   -729.82132    310249.32    16.464483 
24928500    1404.4224   -732.68152    297400.62    16.773794 
24929000    1510.7638   -741.38155    284184.18     16.61346 
24929500    1468.4202   -726.50156     305803.3    16.907584 
24930000    1566.4688   -732.36076    313451.38    16.596646 
24930500    1495.4823   -738.57819    292205.98    16.613766 
24931000    1512.1277   -736.14509    292164.37     16.60217 
24931500    1506.0014   -725.74066    314252.26    16.816397 
24932000     1519.318   -731.61473    307443.76     16.68772 
24932500    1527.0931   -729.56809    306149.57    17.007331 
24933000    1478.8797   -740.94302    301004.86    16.137663 
24933500    1592.4022   -748.10791    295488.45    15.761642 
24934000    1518.3024   -761.43425    290339.17    15.397657 
24934500    1496.0467   -770.65546    291874.43    15.089119 
24935000    1447.2355   -738.58918    318250.49    15.678684 
24935500     1493.604   -753.06569    303822.43    15.615662 
24936000    1434.6361   -761.81262    302751.53    15.042679 
24936500    1367.4152   -756.54121    304074.18    15.315763 
24937000    1587.4335   -767.42105    292786.74    15.092762 
24937500    1534.5415   -760.82207    297928.98    15.229493 
24938000    1554.0598   -764.15192    299719.97    15.160369 
24938500    1496.4661   -757.04902    310332.46    15.197595 
24939000    1437.4762   -752.53964    308479.26    15.218458 
24939500    1467.1624   -751.51579    303364.59    15.113413 
24940000    1447.0546   -752.43036     311621.5    15.238482 
24940500    1519.7411   -758.23966    304534.14    15.082524 
24941000    1516.2651   -752.06633    312112.29     15.44067 
24941500    1596.7081   -759.28371    308844.35    14.960967 
24942000    1575.4054   -756.69291    301196.38    15.458521 
24942500    1413.5452     -755.866    296362.34    15.498226 
24943000     1478.282   -770.16085    287588.14    15.020563 
24943500    1597.2178   -767.97329    287404.25    15.337476 
24944000    1498.7648   -762.54466    296554.13    15.222504 
24944500    1491.5409   -759.08889    299096.24    15.248654 
24945000      1424.34   -756.64047    307860.04      15.2212 
24945500    1445.4934   -752.90525    312692.61    15.291954 
24946000    1566.5251   -759.78326    307066.04    15.048771 
24946500    1572.8465    -755.8002    298720.62    15.327473 
24947000    1457.0224   -759.60462     302673.1    15.178122 
24947500    1476.6158   -764.95171    292979.92    15.203684 
24948000    1567.1474   -763.91608    291757.52    15.215201 
24948500    1506.7385   -755.63311    292852.16    15.296557 
24949000    1426.7722   -758.34944    292238.32    15.466968 
24949500    1560.2693   -770.06431    283305.11    15.133685 
24950000    1561.3768   -759.16764    301098.38    15.335552 
24950500    1479.3745   -756.30236    312760.68    15.120256 
24951000    1396.0763   -754.68455    311595.51    15.191095 
24951500     1524.787   -754.67407    309394.21     15.28264 
24952000    1481.3294   -749.65734     312572.1    15.387209 
24952500    1505.8358   -760.70965    300944.22    14.982387 
24953000    1691.6514   -766.83677    286034.57    15.327596 
24953500    1392.9654    -764.4135    285350.24    15.230011 
24954000     1481.815   -764.24807    292209.61    15.200227 
24954500    1555.2939   -750.69732    299626.72    15.524441 
24955000    1437.0412   -751.05675    318864.14    15.261816 
24955500    1524.0317   -752.97872    314963.25    15.197433 
24956000    1540.3088   -757.86041    306225.21    15.197771 
24956500    1444.3384   -755.52982    317297.65    15.061662 
24957000    1599.1316    -756.7841    312992.21    15.190464 
24957500    1521.9672    -753.9842    312812.22    15.217497 
24958000    1636.8662   -755.77356    305025.76    15.399587 
24958500    1540.6547   -757.14625    297509.83    15.295675 
24959000    1430.8752   -763.07433    297890.94    15.227563 
24959500     1562.824   -759.62791    295479.46    15.475297 
24960000    1613.6559   -759.10827     306362.7    14.986939 
24960500    1517.7417   -745.35019    306284.99    15.624684 
24961000    1560.4962    -753.2813    298250.82    15.612932 
24961500    1503.3421   -746.93593    285335.17    16.203505 
24962000    1604.2187   -740.29258    298592.86    16.147206 
24962500    1388.8361   -735.58149    308230.83    16.163523 
24963000    1507.8309   -744.11349     301256.6    15.906247 
24963500    1599.2723   -754.07528    311310.18    15.307127 
24964000     1538.782    -757.0378     306972.9    15.071485 
24964500    1539.4729   -758.14238    291079.02    15.286972 
24965000    1526.8473   -760.07005    284359.08    15.367365 
24965500    1368.4688   -760.42716    284292.23    15.315221 
24966000     1373.468   -763.96953    283493.54    15.392793 
24966500    1569.8763   -768.55144    287765.56    15.075026 
24967000    1432.4597   -758.88198    303328.45    15.176487 
24967500    1643.6615   -760.41446    308856.74    15.135989 
24968000    1490.4436   -750.48614    299338.19    15.406422 
24968500     1662.549   -749.46611    300835.73     15.46794 
24969000    1611.0464   -753.83722    309382.09     15.28237 
24969500    1402.5027   -763.79733    296119.68    15.018888 
24970000    1428.5069   -764.40797    291255.95    14.982627 
24970500    1416.7051   -757.80061    290741.47    15.402673 
24971000    1475.3563    -767.5264    286977.55    15.124415 
24971500     1695.204    -764.0504    294040.38    15.362818 
24972000    1563.0956   -758.35585    306002.08    14.966842 
24972500    1490.9421   -763.23097    300079.51     15.28731 
24973000    1564.9593   -756.99366    306958.31    14.978296 
24973500    1598.2033   -753.74066    320544.92    15.030206 
24974000    1500.1802   -756.34854    303067.07    15.132883 
24974500    1431.7523   -771.79532    282535.73    15.171194 
24975000    1393.7525   -765.18813    284496.04    15.356893 
24975500    1609.6814   -769.66151    280017.22    15.006524 
24976000    1483.3748   -764.84557    287845.64    15.357733 
24976500    1444.7349   -761.70177    296333.66    14.992206 
24977000    1460.1904   -757.29537    310266.32     15.15441 
24977500    1411.2892   -755.72048    320303.24    15.011886 
24978000    1528.3492   -753.66373    321637.08    15.060096 
24978500    1558.1266   -759.06425    318012.07    15.062297 
24979000    1489.8469   -751.93441    313652.73    15.287047 
24979500    1607.2504   -754.71509    314227.45    15.260305 
24980000    1577.5584   -757.69801    304769.75    15.227555 
24980500    1411.9315   -742.10242    297685.51    15.873843 
24981000    1489.1825   -735.67057    304003.41    16.245048 
24981500    1518.0707   -732.54293    318473.42    16.044507 
24982000    1531.5122   -743.62367    295387.23    15.998047 
24982500    1445.4147   -742.51395    293753.77    16.193897 
24983000    1540.7474   -743.04021    293030.33     16.13777 
24983500    1537.9382   -730.51081    317954.51    16.202009 
24984000    1554.1642   -735.18479    297308.72    16.636749 
24984500      1616.77   -731.42882    304430.97    16.851225 
24985000     1465.496   -726.49284    323725.65     16.56423 
24985500    1473.2948   -738.33824    289093.52    16.626692 
24986000    1634.1703    -735.5845    298275.15    16.444618 
24986500    1519.4837   -738.91035    317816.14    15.772873 
24987000    1441.7375   -748.77693    308058.13    15.403337 
24987500     1400.386   -760.91175    288849.84    15.390874 
24988000    1473.5833   -754.64657    281690.78    15.791146 
24988500    1371.2943   -752.11767    286951.34    15.581466 
24989000    1519.6341   -742.34747    308318.73    15.807295 
24989500    1541.2166   -735.54033     304088.5    16.183955 
24990000    1569.7482   -734.13048    298105.24    16.744442 
24990500    1462.4066   -727.98664    313260.24    16.478437 
24991000    1475.1711   -733.87499    298012.14    16.673948 
24991500    1373.3928   -730.09841    312265.79    16.439961 
24992000    1371.1841   -725.85913    311995.32    16.968819 
24992500    1529.0892   -733.39144    290581.93    16.787414 
24993000     1547.153   -740.68363    283496.88    16.887988 
24993500    1523.4061   -735.20785    298604.55    16.605626 
24994000    1528.5318   -733.97931    295631.01    16.942025 
24994500    1381.7098    -740.7536    281710.36    16.825483 
24995000     1532.362   -732.90143    297053.02     16.92988 
24995500    1439.0466   -726.44691    312814.17    16.903493 
24996000    1655.2652   -728.84813    314904.09    16.791117 
24996500    1445.6615   -734.15705    295287.86    16.807439 
24997000    1436.4788   -734.03291    296964.58    17.167311 
24997500    1684.0831   -736.45768    301693.29    16.436431 
24998000    1471.9552   -735.21786    302050.82    16.629968 
24998500    1497.0386   -742.40669    274430.35    16.737184 
24999000    1454.3631   -740.07636     287596.5    16.663969 
24999500    1357.7425   -733.68954     300915.4    16.582103 
25000000     1499.246   -728.97675    313217.33    16.509098 
Loop time of 6682.66 on 8 procs for 20000500 steps with 256 atoms

Performance: 517.172 ns/day, 0.046 hours/ns, 2992.894 timesteps/s
97.3% CPU use with 8 MPI tasks x no OpenMP threads

MPI task timing breakdown:
Section |  min time  |  avg time  |  max time  |%varavg| %total
---------------------------------------------------------------
Pair    | 3377.1     | 3549.2     | 3675.1     | 156.9 | 53.11
Neigh   | 74.839     | 77.046     | 79.768     |  17.9 |  1.15
Comm    | 870.43     | 1004.6     | 1193.5     | 315.8 | 15.03
Output  | 127.39     | 127.41     | 127.52     |   0.4 |  1.91
Modify  | 1846.5     | 1859.3     | 1868.9     |  16.0 | 27.82
Other   |            | 65.06      |            |       |  0.97

Nlocal:    32 ave 32 max 32 min
Histogram: 8 0 0 0 0 0 0 0 0 0
Nghost:    1045.75 ave 1048 max 1040 min
Histogram: 1 0 0 0 0 2 0 1 0 4
Neighs:    2775.38 ave 2897 max 2628 min
Histogram: 2 0 0 2 0 0 0 0 2 2

Total # of neighbors = 22203
Ave neighs/atom = 86.7305
Neighbor list builds = 704250
Dangerous builds = 0

write_data	data.final
Total wall time: 1:51:23
