LAMMPS (8 Feb 2019)
Processor partition = 2
echo both

include		in.partitions
variable p_id world   0 1 2 3
include		in.temp
variable	temperature equal 1500.0
variable	tempDamp equal 0.1 # approx 0.1 ps
include		in.pressure
variable	pressure equal 300000.
variable	pressureDamp equal 1.0
include 	in.seed
variable	seed world 74581 3459 97394 49764
units		metal
include		in.box
#variable        side equal 4
#lattice         fcc 4.046
#region          box block 0 ${side} 0 ${side} 0 ${side} units lattice
#create_box      1 box
#create_atoms    1 box
#change_box	all triclinic

variable 	mass equal 26.981539
read_data	data.initial
  orthogonal box = (0 0 0) to (15.1524 15.1524 15.1524)
  2 by 2 by 2 MPI processor grid
  reading atoms ...
  256 atoms
  reading velocities ...
  256 velocities
mass            1 ${mass}
mass            1 26.981539
include 	in.setup
variable	out_freq equal 500
variable	out_freq2 equal 500

neigh_modify    delay 10 every 1
include		in.al
### Argon Potential Parameters ###
pair_style 	eam/alloy
pair_coeff 	* * Al99.eam.alloy Al

timestep	0.002 # According to Frenkel and Smit is 0.001

thermo          ${out_freq}
thermo          500
thermo_style 	custom step temp pe press lx


restart 	${out_freq} Restart.lmp.${p_id} Restart2.lmp.${p_id}
restart 	500 Restart.lmp.${p_id} Restart2.lmp.${p_id}
restart 	500 Restart.lmp.2 Restart2.lmp.${p_id}
restart 	500 Restart.lmp.2 Restart2.lmp.2



# NPT

include		in.dump
dump            myDump all atom ${out_freq2} dump.al.${p_id}
dump            myDump all atom 500 dump.al.${p_id}
dump            myDump all atom 500 dump.al.2
dump            myDcdDump all dcd ${out_freq2} out.${p_id}.dcd
dump            myDcdDump all dcd 500 out.${p_id}.dcd
dump            myDcdDump all dcd 500 out.2.dcd
dump_modify	myDump append yes
dump_modify     myDcdDump append yes


timer 		timeout 23:50:00 every 1000
New timer settings: style=normal  mode=nosync  timeout=23:50:00

fix             1 all plumed plumedfile plumed.start.dat outfile plumed.out.${p_id}
fix             1 all plumed plumedfile plumed.start.dat outfile plumed.out.2
fix             2 all nph aniso ${pressure} ${pressure} ${pressureDamp} couple xy
fix             2 all nph aniso 300000 ${pressure} ${pressureDamp} couple xy
fix             2 all nph aniso 300000 300000 ${pressureDamp} couple xy
fix             2 all nph aniso 300000 300000 1 couple xy
fix             3 all temp/csvr ${temperature} ${temperature} ${tempDamp} ${seed}
fix             3 all temp/csvr 1500 ${temperature} ${tempDamp} ${seed}
fix             3 all temp/csvr 1500 1500 ${tempDamp} ${seed}
fix             3 all temp/csvr 1500 1500 0.1 ${seed}
fix             3 all temp/csvr 1500 1500 0.1 97394
fix		4 all momentum 10000 linear 1 1 1 angular

run             5000000 upto # 10 ns
Neighbor list info ...
  update every 1 steps, delay 10 steps, check yes
  max neighbors/atom: 2000, page size: 100000
  master list distance cutoff = 8.28721
  ghost atom cutoff = 8.28721
  binsize = 4.1436, bins = 4 4 4
  1 neighbor lists, perpetual/occasional/extra = 1 0 0
  (1) pair eam/alloy, perpetual
      attributes: half, newton on
      pair build: half/bin/atomonly/newton
      stencil: half/bin/3d/newton
      bin: standard
Per MPI rank memory allocation (min/avg/max) = 4.017 | 4.017 | 4.017 Mbytes
Step Temp PotEng Press Lx 
       0    1414.9716   -816.23515    248923.17    15.152402 
     500    1364.4213   -769.40922    281861.81    15.157345 
    1000    1699.8815    -765.0472    288423.13    15.215323 
    1500    1506.8494   -766.16012    282299.57    15.117644 
    2000    1407.2769   -764.89899    279871.05    15.193143 
    2500     1407.388   -761.25456     296209.7    15.118864 
    3000    1714.0995   -767.41936    287011.58    15.262493 
    3500    1416.1656   -764.36652    294315.84     15.37959 
    4000    1518.8029   -765.06202    295463.91    15.286784 
    4500    1435.5949   -761.64121     292822.2    15.166761 
    5000    1394.9703   -759.95236     298574.8    15.278216 
    5500    1424.2583   -757.65972     303273.9    15.194236 
    6000    1559.9229   -759.99833    313126.09    15.105721 
    6500    1501.1559   -759.74002    311887.64    15.089704 
    7000    1459.4248   -760.32463    305514.28    15.136595 
    7500    1541.7676   -751.57734     317031.2    15.185783 
    8000    1406.1307   -753.89666    321836.37    15.042451 
    8500    1406.5692   -753.13764    319515.78    15.095305 
    9000    1575.8543   -762.73761     309396.4    15.171702 
    9500    1678.1621   -757.41056    314716.36    15.091319 
   10000    1616.0269   -760.22862    310203.15    15.167508 
   10500    1560.8327   -759.72388    302853.14    15.222025 
   11000    1583.5271   -761.33271     299721.5    15.300509 
   11500    1720.8396   -765.55103    292450.75    15.185122 
   12000    1565.9542   -765.73786    291027.09    15.150383 
   12500    1570.2035   -759.97296    292725.94    15.219699 
   13000    1495.5152   -759.73775    293399.33    15.368413 
   13500    1567.3045   -757.22751    299184.18    15.118178 
   14000    1515.2451   -749.97618    313412.33    15.332144 
   14500    1454.9138   -754.40348     317857.3    15.096953 
   15000    1513.5891   -747.93682    319836.65    15.434784 
   15500    1443.1447   -759.21828    313568.69    15.118044 
   16000    1560.9883   -756.20144    303831.27    15.104969 
   16500    1503.4259   -766.12739     284390.4    15.135111 
   17000    1498.7716   -766.70446    286548.68    15.258879 
   17500    1522.6612   -764.31536    287543.33    15.246015 
   18000    1527.1327   -774.51623    258167.55    15.463346 
   18500    1494.0181    -764.7736    282178.72    15.157779 
   19000    1565.0328   -771.29964    281818.28    15.205342 
   19500    1420.3856   -763.96808       287337    15.275036 
   20000    1480.4022   -762.67091    301763.36    15.267811 
   20500    1558.5068   -753.36714    319419.91    15.188598 
   21000     1520.906   -755.13448     314012.6    15.234092 
   21500    1505.0265   -752.90974    304151.02    15.456003 
   22000    1288.7284   -758.02776    299499.02     15.07685 
   22500    1456.8228   -761.03696    279783.21    15.570093 
   23000    1445.3757   -763.56653    283101.02    15.522415 
   23500    1600.9344   -759.88805       288368    15.435078 
   24000    1591.5842   -764.25446    291218.05    15.121517 
   24500    1518.7059   -756.03769    300027.24    15.048967 
   25000    1458.1708   -768.39047    290745.93    15.097411 
   25500    1468.6826   -758.53554    299557.15    15.239941 
   26000    1577.4311    -759.0497    300581.99     15.30992 
   26500    1545.9171   -750.60794    307886.68    15.333241 
   27000    1280.0086   -750.41155     310280.1    15.388461 
   27500    1564.5278    -757.9894    304130.27    15.233814 
   28000     1460.296   -753.94472    307811.39    15.294618 
   28500     1622.443   -755.02512     308549.8    15.175737 
   29000    1589.2143   -751.11821    306530.69    15.457377 
   29500    1521.5474   -750.93195    303617.31    15.426194 
   30000    1474.6157   -761.60069    290710.57    15.333611 
   30500     1647.123   -757.78713    291659.49    15.430235 
   31000    1524.5657    -760.6698    285315.67    15.432855 
   31500    1415.9292   -753.73959    294219.41    15.549596 
   32000    1402.0429   -759.49459    301193.38    15.305151 
   32500     1422.723    -756.7566    306481.21    15.244778 
   33000    1418.2001    -752.0219    307896.05    15.470335 
   33500    1542.2274   -754.63049    303356.68    15.445771 
   34000    1605.4907   -760.67291    307562.35    15.161721 
   34500    1556.3083   -752.51906    323063.98    14.976851 
   35000    1609.0958   -750.60268    312981.96    15.325805 
   35500    1586.6402   -756.73013    296659.16    15.489064 
   36000    1497.3391   -760.47538     276697.7    15.628067 
   36500     1319.523   -762.73359    277518.34    15.486216 
   37000    1537.2973   -756.34832    287264.68    15.470019 
   37500    1526.5927   -761.59714    283241.12    15.389237 
   38000    1524.1702   -754.12445    305597.03    15.237422 
   38500    1547.8341   -746.88997    316962.78    15.411883 
   39000    1666.5061   -747.82525    310706.75     15.52294 
   39500    1619.9552   -746.44253    316604.12     15.53772 
   40000    1602.9251   -751.88186    303152.58    15.417284 
   40500    1407.0931   -750.71975    300604.66    15.533365 
   41000    1462.7967   -759.88166    287617.89    15.525909 
   41500    1497.4064   -760.09344    277324.39    15.639224 
   42000    1422.6456   -756.84193    286224.92     15.52529 
   42500    1563.3383   -763.03703    299567.93    15.167984 
   43000    1586.6323   -762.73654     300926.6    15.183615 
   43500    1517.3985   -757.77998    310180.86    15.015812 
   44000    1526.9511   -751.92315    324186.12    15.098665 
   44500    1416.0529   -756.01207    313468.46    15.044744 
   45000    1577.1422   -759.44669    314958.15    15.076992 
   45500    1569.6823    -755.2209    319857.47    15.018196 
   46000    1437.8298   -757.45752    314633.24    15.122982 
   46500    1454.2963   -760.78308    303234.53      15.0749 
   47000    1473.3805   -765.42183    293929.61    15.166583 
   47500     1655.485   -768.50081    278661.38    15.113863 
   48000    1478.1524    -767.6443    266207.75     15.14814 
   48500      1464.77   -766.92192    290310.36    15.132896 
   49000    1431.8596   -767.12537    289205.74     15.11348 
   49500    1488.9973   -757.36212    301361.55    15.156662 
   50000    1472.8424   -754.47082    311044.54    14.945562 
   50500    1570.4103   -759.07833    307926.81    15.000375 
   51000     1423.323    -761.0249    299939.18    15.071811 
   51500    1419.2099   -761.47891    309437.86    15.068641 
   52000    1464.5333   -753.15072    329624.33    14.949347 
   52500    1630.2613   -755.00434    318046.25    15.107066 
   53000    1434.1744   -753.49934     314139.4    15.005336 
   53500    1413.4507   -759.66139    310318.21    15.140023 
   54000    1396.7544   -743.90739    296946.66    15.914473 
   54500    1447.2273   -734.27085    294650.81    16.849144 
   55000    1427.7785    -735.3995    296659.78    16.852406 
   55500     1484.989   -738.73159    286499.27     16.94552 
   56000    1483.2393   -726.58101    317291.76    16.821285 
   56500    1513.5946   -731.02281    300690.37    16.798008 
   57000    1474.2922   -730.09824    311385.08    16.660102 
   57500    1423.8383   -728.91786    309277.83    16.646788 
   58000    1471.3317   -728.18144    305767.27    16.694276 
   58500    1408.2094   -726.11062    306009.56    16.656228 
   59000    1532.1585   -736.50822    295696.47    16.692163 
   59500    1604.6873   -736.34107    292164.77    16.771006 
   60000    1620.2382   -733.20277    297906.58    16.715297 
   60500     1452.751   -740.02933    293974.92    16.724348 
   61000    1519.6426   -731.49342     303803.1    16.687291 
   61500     1532.637   -724.97346    311344.62    16.700275 
   62000    1597.0679    -736.3385    291935.43    16.884379 
   62500    1475.5426   -731.66888    298490.47    16.702006 
   63000    1534.3242   -730.80236    306677.71    16.806742 
   63500    1728.0913   -733.17074    300915.18    16.817219 
   64000    1451.2852   -730.34624    303849.87    16.736519 
   64500     1396.207   -736.80167    297155.99     16.78083 
   65000    1421.9789   -732.30311     296234.3    16.704795 
   65500    1440.7621   -730.11117    303430.88    16.795344 
   66000    1638.6231   -731.04433    309213.01    16.745822 
   66500    1453.4287   -731.54588    304902.78    16.709472 
   67000    1602.3829   -745.39476    276319.75    16.995626 
   67500    1440.0026   -732.31861    301988.69    16.859353 
   68000    1354.3411   -734.72453     301723.5    16.909801 
   68500    1560.3823   -738.54501    286500.61    17.015946 
   69000    1541.1346   -734.86596    300101.57    16.651369 
   69500    1327.9232   -734.72432    296212.96    16.676257 
   70000    1360.7781   -734.61906    300447.63    16.425252 
   70500    1485.4368   -734.97973    303065.44    16.640593 
   71000    1586.9727   -730.90482    306268.48    16.673424 
   71500    1540.9973   -735.69004    292943.69    16.752744 
   72000    1479.7517    -737.4004    292914.13    16.642592 
   72500    1510.5563   -729.59494     315736.8    16.565865 
   73000    1533.3471   -733.20142     308092.8    16.808744 
   73500    1309.0512   -733.61332    298913.94    16.747079 
   74000    1497.8309   -739.77973     282231.7    16.833102 
   74500    1504.0896     -738.283    290405.12    16.798605 
   75000    1578.4469    -729.2035    317390.41    16.808262 
   75500    1502.3555   -726.50726    315321.51    16.740978 
   76000    1675.9957   -731.96968    301591.12    16.865447 
   76500    1448.1569    -739.8245    281521.81    16.878043 
   77000    1536.7872   -733.14721    304716.74    16.520568 
   77500    1401.5472   -726.76366    318081.39    16.708433 
   78000    1697.3256   -726.35176    321126.78    16.734037 
   78500    1368.7654     -722.578    321136.17     16.83078 
   79000      1622.43   -734.33103     302632.5    16.795418 
   79500    1491.5632   -743.46186    275960.16    16.703364 
   80000    1530.5995   -740.99216     275780.3    16.847094 
   80500    1496.7083   -737.52085    294405.49    16.615194 
   81000    1540.1518   -738.63602     295961.6    16.797142 
   81500    1587.0491     -728.662    317275.36    16.703814 
   82000    1502.4194   -733.52545    308234.84    16.846293 
   82500    1425.1966   -741.16943    280507.95    16.925585 
   83000     1618.804   -729.54584    315337.62    16.826708 
   83500    1574.5243   -733.09456    300257.53    16.841799 
   84000     1503.884   -736.03683    299484.75    16.639665 
   84500    1644.1147    -730.6913    314492.45    16.847602 
   85000    1411.6865   -728.66672    316109.42    16.807659 
   85500    1473.2302   -736.14901    291346.72     16.81299 
   86000    1460.5139    -738.9736    291228.43    16.791046 
   86500    1511.4101   -725.52148    320621.34    16.535709 
   87000     1519.327   -733.04834    302073.72     16.50593 
   87500    1479.4716   -732.27911    303646.76    16.826125 
   88000    1523.7417    -740.5845    282568.12    16.880969 
   88500    1488.2168   -738.28885       287782    16.564257 
   89000    1608.4083   -727.74856     315973.6    16.761646 
   89500    1485.8143   -739.37129    287407.24    16.628583 
   90000    1558.9403   -733.61571    290519.92    16.785081 
   90500    1456.6824   -725.92614     316189.3     16.72288 
   91000    1560.9503   -730.00992    306249.34    16.705032 
   91500    1464.7543   -736.30494    296725.74    16.705677 
   92000    1421.4833   -735.28796    302394.06    16.632963 
   92500    1647.0768   -737.10806    291567.57    16.638865 
   93000     1507.401   -731.59032    315351.08    16.595173 
   93500    1524.6941   -737.84547    287437.75    16.452777 
   94000    1489.8016   -735.38105    299048.08    16.896178 
   94500      1544.86   -736.26606    303935.27     16.52489 
   95000    1505.2799   -730.63123    305573.61    16.506009 
   95500    1523.1716   -733.23004    302941.98    16.574558 
   96000      1525.15   -739.05754    284933.75    16.462727 
   96500    1504.3609   -726.98208    321634.35    16.344865 
   97000    1583.8383   -737.28259    302220.24    16.433291 
   97500     1446.908   -736.53312    298768.39    16.463153 
   98000    1438.8266   -742.22232    290052.25    16.499676 
   98500    1609.8437    -731.4451    318187.32    16.356272 
   99000    1660.0516   -732.33952    300165.31    16.862205 
   99500    1598.4798    -730.8465    299781.71    16.788281 
  100000    1409.5278   -738.53716    290917.25    16.631272 
  100500    1576.1884   -742.76661    284932.66    16.754488 
  101000    1439.7814   -729.65409     311116.1    16.656434 
  101500    1529.7243    -730.9432    299720.04    16.861312 
  102000    1533.6152   -736.27288     285995.3    16.940144 
  102500    1433.7991   -734.40007     291789.9    16.965361 
  103000    1537.1138   -728.82363    317820.54    16.776022 
  103500    1507.9919     -733.567    294846.81    16.786207 
  104000    1611.6089   -742.54192       278946    16.929244 
  104500    1718.6266   -733.52535    298208.74    16.759856 
  105000    1567.7291   -739.10226    297033.97    16.559944 
  105500    1549.7452   -737.77919    297524.97    16.611604 
  106000    1444.8313   -740.64154    293475.78    16.340517 
  106500     1497.583   -739.76877     291161.4    16.482583 
  107000     1527.397   -731.24068    312860.99    16.483333 
  107500    1508.7263    -730.4027    315885.56    16.502478 
  108000    1295.9123    -737.6685    291409.31    16.360896 
  108500    1392.3107    -735.5448    295727.34     16.33799 
  109000    1338.4623   -734.64728    304826.47    16.336917 
  109500    1466.7728    -738.4985    295045.32    16.508832 
  110000    1532.8397   -732.38776    304846.28    16.594795 
  110500     1520.526   -734.47327    302233.55    16.416675 
  111000    1557.1026   -744.37274    285202.57    16.385574 
  111500    1503.3827   -738.01426    298008.29    16.304245 
  112000    1441.2808   -734.13239    289340.84    17.078613 
  112500    1496.2655   -737.27491    295304.79    16.386535 
  113000    1510.2829   -738.95736     294351.7     16.25881 
  113500     1400.622    -734.8488    307037.42    16.232997 
  114000    1428.9486   -730.05796    313767.97    16.444665 
  114500    1529.7315   -737.00672    301733.72    16.549091 
  115000    1551.0174   -728.01112    311046.39    16.517198 
  115500    1499.6645    -736.5025     301845.2    16.421791 
  116000    1474.5367   -735.44942    298072.42    16.386912 
  116500    1534.3629   -741.51204    289972.88    16.350839 
  117000    1535.2712   -741.62948    290945.47    16.291678 
  117500    1565.4977   -737.72633    304408.87    16.516164 
  118000    1435.8432   -739.62558    290244.22    16.552396 
  118500    1398.6908   -738.02054    301850.04    16.066496 
  119000    1390.2817   -746.18071    294624.21    15.770735 
  119500    1607.4685   -746.14544    287370.42    16.075009 
  120000    1541.0983   -732.25786    319105.76    16.114441 
  120500    1385.9892    -735.3757    307160.63    16.293564 
  121000    1536.7519   -740.95425    292085.34    16.414208 
  121500    1520.0907   -738.45466    294213.35    16.568144 
  122000         1353   -733.83832    296988.77    16.490014 
  122500    1553.5966   -739.76658    296969.01    16.209857 
  123000    1529.6855   -735.92215    299010.31    16.308886 
  123500    1496.5264   -747.90131    280773.29     16.51584 
  124000    1516.7451   -738.84353     292541.1    16.407204 
  124500    1518.3653   -731.21905    313688.09    16.265702 
  125000     1512.722   -740.84415    289779.79    16.468059 
  125500    1545.4032   -739.01726    294883.25    16.435886 
  126000    1573.4106   -736.15256    306235.78    16.440153 
  126500    1495.1606   -731.84889    312250.27     16.47936 
  127000     1421.075   -740.34654    286775.28    16.566126 
  127500    1548.6043   -732.97031    314913.86    16.340567 
  128000     1644.503   -740.09795    292050.15     16.41024 
  128500    1464.2868   -736.28386    297383.46    16.364927 
  129000    1480.5052   -731.26347    324173.94    16.242603 
  129500    1446.3155   -735.84791    299717.99    16.304237 
  130000    1449.1731   -739.28767    297495.06    16.120184 
  130500    1572.1168   -748.22403    298374.57    15.691949 
  131000    1628.2014    -753.2097     302985.7    15.380303 
  131500    1533.4333   -752.68797    306180.45    15.343262 
  132000    1450.8214   -758.75459    293941.03    15.421862 
  132500    1533.4573   -753.84397    300519.72    15.550098 
  133000    1315.9987   -761.82793     273073.5    15.569404 
  133500    1472.4878   -761.81227    274852.54    15.514667 
  134000    1533.8841    -764.9085    280232.75    15.459636 
  134500    1483.2122    -755.9076    289382.44    15.551492 
  135000      1490.48   -757.43513     295224.9    15.495529 
  135500    1492.4462    -749.7874    306029.81    15.564547 
  136000    1544.2742   -748.22424    316506.87    15.405993 
  136500    1592.0069   -745.03733    313530.97    15.618333 
  137000    1487.6331   -753.56238    308830.23    15.300495 
  137500    1400.1646   -751.27053    303717.22    15.390731 
  138000    1489.5747    -749.0791    300531.15    15.607474 
  138500    1491.3902     -758.601    292191.82    15.517514 
  139000    1401.3173   -748.79774    289785.69    15.953728 
  139500     1494.526   -758.98156       287213    15.406556 
  140000    1507.1784   -755.08419    286054.31    15.562275 
  140500    1549.8101   -749.13633    284450.07    15.889898 
  141000    1397.0417    -740.2719    305892.11    15.920942 
  141500    1536.0817   -744.09319    297690.88    15.884093 
  142000    1516.0381   -746.90492    281855.11     16.24546 
  142500    1626.8058   -739.29323    296301.08    16.286922 
  143000    1570.2557   -752.65166    289466.66     15.79739 
  143500    1503.5652   -760.42132    292831.28    15.415628 
  144000     1435.372   -751.33929    297598.54     15.51552 
  144500    1400.6132   -749.77793    295621.66     15.54623 
  145000    1462.4588   -748.71514    307408.43    15.493917 
  145500    1505.8891   -750.76733    320204.82    15.300613 
  146000    1559.1543   -747.88715    327822.63    15.350257 
  146500    1644.6112   -749.91365    306668.87    15.584782 
  147000    1406.7253   -746.60546    308400.81    15.545176 
  147500    1504.2098   -737.66555    311124.45    15.866432 
  148000    1527.9847   -740.68767    295245.55    16.353146 
  148500    1365.0374   -738.99634    291539.34    16.265437 
  149000    1380.9926   -744.46176     295005.8     15.89255 
  149500    1468.3013   -756.05164    300049.45    15.438605 
  150000    1424.4952   -745.28854    300385.53    15.774299 
  150500    1415.6011   -740.23125    307338.41    15.973319 
  151000    1424.7501   -735.15616    324226.85    15.801176 
  151500    1369.5499   -742.51749    314028.29    15.708807 
  152000    1510.1826    -751.2064    282807.97    15.943077 
  152500    1447.9518   -747.32915    287201.29    16.040106 
  153000    1432.6007   -755.24089     288319.8    15.646613 
  153500     1578.461   -748.38877    303029.59    15.585024 
  154000    1545.9772   -750.22507    313773.69    15.449365 
  154500    1641.0109   -760.34007    307947.56    15.028305 
  155000     1360.574   -764.53765    303609.48    15.066472 
  155500    1522.4298   -760.54699    304716.26    15.001283 
  156000    1534.0212   -760.80473    306588.22    15.160393 
  156500    1533.7198   -763.21446     305035.6    15.111237 
  157000    1416.6266   -759.08394    312163.63    15.022531 
  157500    1537.9255   -761.72234    312416.18    15.028749 
  158000     1405.762   -758.93174    308975.77    15.060032 
  158500    1426.9845   -759.64168     302947.5     14.98162 
  159000    1425.6813   -772.43018    276730.77    15.173548 
  159500     1410.486   -775.14752    273129.52    15.092134 
  160000    1440.8004   -765.52222    287815.12    15.084808 
  160500     1593.863   -765.64791    292973.03    15.068133 
  161000    1486.8597   -760.16809    310147.16    15.053355 
  161500    1442.4873    -755.3376    320080.14    15.026279 
  162000    1511.6355   -755.53783    311702.44    15.109681 
  162500    1559.4101   -757.76912     304694.8    15.023525 
  163000    1414.3532   -767.46933    287583.63    15.244436 
  163500    1516.7424    -752.7213    293800.51     15.65016 
  164000    1498.5054   -739.65656    309093.95    15.903276 
  164500    1487.9711   -736.17903    316141.99    15.904927 
  165000    1475.5631   -753.97478    299398.84    15.341446 
  165500     1407.803   -760.21136    287774.51    15.476313 
  166000    1637.0894   -762.44405    283177.53    15.557526 
  166500    1475.5286   -762.55169    285705.65    15.412057 
  167000    1478.5701   -745.31838       306746    15.618643 
  167500    1572.4142   -742.43384    308065.33    15.861874 
  168000    1417.3379   -741.93365    293954.37    16.388935 
  168500    1366.4724    -744.5468    295661.81    16.052431 
  169000    1484.6192   -740.05348    301721.19    15.996225 
  169500    1478.7183   -734.37664     293802.2    16.645844 
  170000    1441.4252   -735.81368    282765.36    17.046746 
  170500    1512.8333   -730.21361    302603.47     16.97657 
  171000    1453.0288   -730.89917    298644.34    16.895823 
  171500    1506.5458   -741.53619    283572.12     16.88193 
  172000    1619.7109   -730.49273    306992.79    16.881259 
  172500    1591.6879   -732.32898     303326.9    17.016792 
  173000    1565.9521   -735.43856    296142.99    16.971177 
  173500    1559.3935   -732.37472    293617.54     16.83628 
  174000    1615.8522   -729.39189    311178.71     16.77893 
  174500     1552.917   -731.56443    305154.86    16.893927 
  175000    1490.1807   -734.66425     297035.6    16.916738 
  175500    1558.0584   -731.53678    292747.36    16.884977 
  176000    1585.1594    -736.6076     291733.3    16.867162 
  176500    1488.1226   -729.80725    297300.03    16.891083 
  177000    1373.1852   -732.97279    296476.07    16.984465 
  177500    1514.0607   -729.86512    302732.49    17.024352 
  178000    1497.1861    -728.6102    307629.11    16.763208 
  178500    1597.4832   -739.73709    290335.81    16.358192 
  179000     1535.213   -745.98872    275552.26    16.447321 
  179500    1642.1588   -745.28734    291520.25    15.868937 
  180000    1545.8254   -732.28999    313331.38    16.143708 
  180500    1491.1757   -735.88773     298880.5    16.246144 
  181000    1427.4168   -734.30965    301638.02    16.349793 
  181500    1562.5231    -745.0241     288060.5    16.268384 
  182000    1431.6704   -742.01208    297036.72    15.988626 
  182500    1623.4467   -747.63051    313608.31    15.466155 
  183000    1549.7368   -745.70999     317214.2    15.545284 
  183500    1616.2984   -751.43469    310009.11     15.33215 
  184000    1484.0586   -747.95322    322468.13    15.310767 
  184500    1477.4701     -760.844    305598.41     15.16074 
  185000    1466.5772   -755.54226    318527.93    14.960807 
  185500    1557.3096   -757.86434    320766.34    15.057769 
  186000    1401.5717   -754.61955    323550.78    14.977825 
  186500    1408.3759   -759.35003    311167.09    15.071264 
  187000    1492.6442   -762.92771    299835.61    15.048049 
  187500    1521.8432   -758.98431    311678.18    14.969674 
  188000     1522.564   -759.06887    312127.78    15.096684 
  188500    1542.9791   -762.99504    301064.51    14.988051 
  189000    1380.4655   -769.23276    285165.58    15.170446 
  189500    1547.4379   -761.89398     293130.2    15.240543 
  190000    1646.9243    -762.5123    295508.26    15.154869 
  190500    1577.1658   -763.06714    297381.36    15.032517 
  191000    1450.1646   -768.10136    290590.13    15.101566 
  191500    1609.3595   -755.66818    315831.77    15.034093 
  192000    1433.4367   -763.12227    299872.11    15.082833 
  192500    1522.7058   -765.53685    297537.22    15.035639 
  193000    1502.8489    -764.2951    297724.99    15.076013 
  193500     1450.558   -762.31325    294441.08    15.020502 
  194000    1412.3635    -763.7107    289944.92    15.090793 
  194500    1573.3872   -768.71049    291150.08    15.107381 
  195000    1558.7221   -773.51757    283545.17    15.185372 
  195500    1502.1613   -766.03244    293004.53    15.065932 
  196000    1502.4957   -765.67493    296196.58    15.062978 
  196500    1409.4551   -764.35556     289833.4    15.139102 
  197000    1342.4537   -760.57067    289619.27    14.995636 
  197500    1560.2078   -768.26061    286861.38    15.153867 
  198000    1437.9019   -761.82215     291360.8    15.037286 
  198500    1465.0035   -763.12107    277833.09    14.972057 
  199000    1426.4601   -764.30631    288410.18    15.006768 
  199500    1509.8312   -751.06685    304769.76    15.547235 
  200000    1528.1433   -744.27353     299690.6    15.944678 
  200500    1540.0128    -730.3483    314913.28     16.50096 
  201000    1445.2723    -734.9288    307602.47    16.238041 
  201500    1442.3789   -739.38691    301579.52    16.319878 
  202000     1425.404   -732.00595     302936.8      16.4318 
  202500    1409.2477   -752.81842    285752.35    15.860686 
  203000    1517.4133   -757.31126    293496.51    15.478085 
  203500    1508.1043   -760.73965    284845.11    15.492562 
  204000    1415.4429   -763.38912    285023.61    15.416383 
  204500    1523.7755   -763.16131    298286.83    15.176315 
  205000    1489.4129   -756.88719    308904.66    14.957109 
  205500    1542.0783   -761.05035    309345.22    15.038614 
  206000    1524.3887   -759.25703    314028.84    15.061487 
  206500    1438.6887   -743.53863     322771.9     15.30622 
  207000    1559.7263   -750.02714    315694.42    15.282042 
  207500    1485.7135   -749.01425    304285.33    15.588953 
  208000    1459.1983   -748.35042    295566.58    15.882881 
  208500    1543.5134   -740.27859    292323.92    16.591867 
  209000    1715.8649   -740.16878    306722.66    16.176747 
  209500      1432.61   -741.53697    299353.78    16.131047 
  210000    1454.7124   -748.69728    279616.84    16.156748 
  210500    1499.6964   -747.75912    290630.65    15.879287 
  211000     1357.534   -744.01376    306097.62    15.776543 
  211500    1561.3444   -740.29402     310376.4    15.865567 
  212000    1662.7627   -732.92518    303600.76    16.305564 
  212500     1590.834   -740.64666       284792    16.725536 
  213000    1417.0436   -732.96467     310442.1    16.179022 
  213500    1444.2322   -742.95246    309098.43    15.705376 
  214000    1428.8517   -762.75391       286110    15.397359 
  214500    1454.8477   -766.29381    281537.36    15.442729 
  215000    1506.8765   -757.52492    286103.89    15.571471 
  215500    1548.0655   -743.41612    297989.09    15.865553 
  216000    1590.1805     -740.198    308735.97    16.056106 
  216500    1658.6622   -733.09036    304204.69    16.770117 
  217000    1616.0719    -731.4725    297414.75    16.918648 
  217500    1446.1188   -740.09898     285187.2    17.072345 
  218000     1445.192   -732.86602    304318.67    16.589105 
  218500    1447.1697   -730.41787    315110.55    16.385079 
  219000    1480.4296   -742.28885    282636.76    16.444085 
  219500    1537.1381   -738.13109    292744.28     16.55596 
  220000    1511.7946   -739.55915    297209.61    16.258846 
  220500    1453.2102   -734.37365    299875.48    16.801465 
  221000    1486.2816   -731.20038     309043.1    16.811847 
  221500    1514.3097   -732.04769    299498.29    16.936546 
  222000    1461.3193   -736.10207    299390.05    16.703139 
  222500    1453.5506    -731.7824    293349.62    16.829858 
  223000    1518.9676   -732.17609    298508.28    16.827526 
  223500     1461.403   -738.44914    290456.78    16.885104 
  224000    1442.7775    -738.3077    287842.21    16.917378 
  224500    1450.4438   -732.36978    298902.22    16.899085 
  225000    1491.5908   -734.89777    288748.59    17.044859 
  225500    1383.6162   -726.78629    305380.17    17.002776 
  226000    1559.9751   -732.37797    310674.93    17.011837 
  226500    1382.3538   -725.59682    308269.58    16.874035 
  227000    1447.3653   -737.42398    289520.66    17.054009 
  227500    1350.6763   -737.71797    286398.01    16.945501 
  228000    1490.6479   -736.81425    280986.64     16.95361 
  228500    1293.9919   -725.46622    307975.33     16.75055 
  229000    1592.2528   -734.84659    296305.62    16.770117 
  229500    1497.1638    -737.1268    296053.35    16.661562 
  230000    1370.2606   -739.23491    293374.61    16.218829 
  230500    1553.5576    -737.1035    292838.64    16.709784 
  231000    1471.9862   -733.28813     289002.1    16.765912 
  231500    1589.2981   -731.61264    313567.57     16.32033 
  232000    1471.6704   -738.42125    297228.66    16.195633 
  232500    1560.1008   -730.90688     316408.5    16.194761 
  233000    1448.6869   -742.67392    304659.43     15.86667 
  233500    1514.3472   -749.29298    284023.17    16.048639 
  234000    1452.6466   -733.64375    301341.57    16.517282 
  234500    1670.3779   -735.37646    312477.55    16.080852 
  235000    1463.8201   -741.02567    297297.28     16.35051 
  235500    1479.3163   -733.27026    297843.72     16.26926 
  236000    1553.8263   -752.03683    286568.35    15.685348 
  236500    1438.4977   -764.53598    283808.34    14.953741 
  237000    1461.4633   -758.16656    296568.15    15.332396 
  237500    1413.1658   -742.12093    301261.82    15.700267 
  238000      1514.14   -731.18045    320150.64    16.091649 
  238500    1639.8171   -734.04771    305541.69    16.316177 
  239000    1521.7089   -743.82827    289661.63    16.154829 
  239500    1443.2479   -736.58833    300147.54    16.414957 
  240000    1479.3507   -738.77361    302336.79    16.126813 
  240500    1632.3599   -735.44795    320235.13    15.965078 
  241000     1542.287   -734.06815    327755.27    15.800473 
  241500    1577.3797   -741.00318    307462.33    15.762196 
  242000    1586.8787   -747.91438     296404.2    15.808318 
  242500    1488.3865   -751.78311    288565.01    15.752293 
  243000    1411.1242   -761.38047    294428.77     15.15339 
  243500    1407.0376   -761.23068    292100.75    14.987695 
  244000    1488.5897   -767.23906    288518.35    15.125547 
  244500    1530.5473   -766.76152    279509.72    15.231241 
  245000    1425.7076   -756.05135    291395.44    15.547733 
  245500     1702.769   -756.01725    298981.56    15.389233 
  246000      1475.26   -746.31668    305164.93    15.669282 
  246500    1384.7929   -736.02043    290725.98    16.654062 
  247000    1393.0496   -732.29585    297484.09    16.853196 
  247500    1397.9689   -728.47313    309626.39    16.858068 
  248000    1497.0423   -719.55557    335054.13    16.766844 
  248500    1519.7497   -734.28983    298767.84    16.937664 
  249000    1524.0296   -728.72224    306838.77    16.537134 
  249500    1674.2915   -734.95085    304835.61    16.420157 
  250000    1494.3446   -741.67358     296428.3    16.167444 
  250500    1519.7149   -743.29583    282904.42    16.682394 
  251000    1532.2852   -727.77913    311085.18    16.747011 
  251500    1465.5732   -728.86299     302169.1    16.878577 
  252000    1710.6529   -740.57585    288908.45    16.916615 
  252500    1485.7117   -726.68118    314881.94    16.786687 
  253000    1632.4869   -725.56068    314758.27    16.816264 
  253500    1446.8936   -739.69683    285217.42    16.789636 
  254000    1448.7714   -734.46803    295196.48    16.759339 
  254500    1563.8493   -730.70211    308661.07    16.638339 
  255000    1572.1901   -732.40434    312429.65    16.143987 
  255500    1561.1487   -746.51613    293124.49     15.74664 
  256000    1466.0702   -744.26409    291038.85    16.125258 
  256500    1708.3133   -735.89501    303662.29    16.380967 
  257000    1477.8094   -737.19511    306004.01    16.271255 
  257500    1621.2383   -724.42663    319126.94    16.584053 
  258000    1470.2746   -728.81524    306270.07    16.721713 
  258500    1499.1699    -731.9694    299620.33    16.849947 
  259000    1404.5825   -732.11919    303070.32    16.711266 
  259500    1480.8899   -737.64115    289857.47    16.630357 
  260000     1486.709   -739.68945    289516.26    16.472302 
  260500    1529.5956   -736.78471    307987.46    16.187148 
  261000    1431.7382   -727.78946    320307.52    16.493878 
  261500    1421.3458    -736.9606    301244.24     16.38202 
  262000    1531.5031   -736.89221    292345.67    16.460791 
  262500    1585.5427   -738.56322    304109.38    16.226032 
  263000    1598.7035    -744.6894    284226.03    16.262529 
  263500    1570.6764   -745.21346    291694.69    15.993751 
  264000    1575.4521   -751.14364    297294.62    15.645187 
  264500    1471.1111   -752.32902    313461.06    15.432129 
  265000    1648.8611   -736.05574    323312.79    15.671528 
  265500    1570.7958   -742.37082    302450.63    16.035065 
  266000     1438.019   -742.84575    295455.26    16.221549 
  266500    1489.5991   -732.65906    311479.15    16.449069 
  267000    1479.6038   -733.73079     315572.7     16.11092 
  267500    1486.0203   -738.77347     291209.5    16.418653 
  268000    1492.9135   -741.05531    296536.49    16.308322 
  268500    1554.5682   -730.78409    314807.52    16.468571 
  269000    1526.9116   -744.64939    290016.56    16.132372 
  269500    1473.0769   -739.40732    296230.33    16.413681 
  270000    1533.0871   -726.75268    327770.92    16.187752 
  270500    1383.0375    -740.9847     296614.8    16.267314 
  271000    1572.1268   -736.71864     306798.3     16.18577 
  271500    1399.6577   -755.26208     307006.6    15.351001 
  272000    1426.9862   -752.18998    304058.18    15.468762 
  272500    1484.5854   -755.30063    302565.96    15.465448 
  273000    1630.6271   -740.50832    299871.43    16.158275 
  273500    1475.0327   -741.03176    293156.93     16.20345 
  274000    1572.0588   -731.02137    312609.05    16.574418 
  274500    1450.6797   -731.34776    307267.23     16.79334 
  275000    1454.8677   -735.17663    288959.29    16.994698 
  275500    1526.6522   -736.12542    285030.94    16.946141 
  276000    1607.4056   -727.74613     312136.2    16.840278 
  276500    1614.5767   -726.02522    327226.98    16.848027 
  277000    1459.8049   -727.54213    306489.91    16.948124 
  277500    1498.5961   -730.32126    300607.54     16.98036 
  278000    1547.9787   -734.98518    286826.25    16.940583 
  278500    1512.7769   -734.86946    296469.72    16.801984 
  279000    1548.5932    -722.3626    322851.86    16.721644 
  279500     1479.579   -727.38127    317361.89    16.792176 
  280000    1427.4306   -728.14438    297697.43    16.945107 
  280500    1379.2202   -738.04743       294090    16.943372 
  281000    1600.5452    -729.6791    322555.09     16.44448 
  281500    1630.9515   -736.35831     303407.6    16.249766 
  282000    1495.1396   -743.63037    278959.58    16.251208 
  282500      1656.88   -740.95089    298828.63    16.254348 
  283000    1367.4638   -733.20179    300731.92    16.529652 
  283500    1456.7726   -742.96557    288177.39    16.133175 
  284000    1491.6583   -742.87901    307104.41    15.760531 
  284500    1441.9252   -734.47602    319418.01    15.883967 
  285000     1471.196   -741.57879    304598.11    15.893675 
  285500    1494.9738   -747.29874    307484.95    15.696616 
  286000      1463.49    -732.8335    310896.25    16.168779 
  286500    1541.3066   -736.86948    294694.54    16.546351 
  287000    1523.1118   -742.01926    281431.29    16.320151 
  287500    1523.5722   -735.09738    303770.04    16.618878 
  288000    1446.7354   -731.15145    302377.59    16.969034 
  288500     1682.082   -730.82435    303700.48    16.945734 
  289000     1590.047   -728.24065    311551.39     16.88795 
  289500    1446.3402   -737.86351    283772.83    17.104174 
  290000    1602.3983   -735.43874     294033.3      16.9129 
  290500     1415.061   -729.31946    303105.26       16.883 
  291000    1511.9409   -748.84228    268935.16    17.016647 
  291500    1518.9759   -740.77794    282946.48    16.976999 
  292000    1335.4813   -728.29445    312310.39    16.866745 
  292500    1508.5664   -732.71598    296897.19    16.832517 
  293000    1521.2125     -725.672    311131.23    16.864742 
  293500    1640.7611   -730.63116    303598.29    16.771332 
  294000    1570.2703   -735.96937    299339.42    16.802028 
  294500    1468.6286   -740.62972    274441.61    16.889963 
  295000    1472.2007   -729.80437    308298.64    16.760178 
  295500    1364.4155   -728.77329    307553.65    16.762789 
  296000    1548.8717    -732.8957    307308.21    16.583333 
  296500    1604.3252   -743.37909    288343.08    16.307487 
  297000    1443.3674   -734.97457    297157.48    16.718284 
  297500    1630.6447   -731.34381    304637.78    16.614958 
  298000    1354.4398    -740.5683    296715.37    16.188281 
  298500    1553.8563   -736.92885    296897.79    16.548736 
  299000    1452.2226   -729.67704    307137.34    16.748442 
  299500    1472.8467   -732.53098    297061.81     16.95873 
  300000    1463.6333   -735.66742    295820.73    16.876824 
  300500    1537.6326   -730.50199    304040.59    16.715418 
  301000    1553.0725   -735.39074    303031.07    16.321298 
  301500    1468.8844   -738.81941    289028.99    16.526309 
  302000    1649.2148    -742.8816    298792.02    16.057034 
  302500    1604.4013   -752.89063    309900.41    15.423529 
  303000     1385.025   -765.00425    297348.98    15.055732 
  303500    1549.8874   -755.41816    306881.93    15.228831 
  304000    1595.2181   -753.85367     300040.7      15.4931 
  304500     1697.027    -758.4817    304200.38    15.245564 
  305000    1657.4254   -742.58472    304582.64    15.758246 
  305500    1531.1128   -735.31153    317660.52    16.035872 
  306000    1433.1917   -747.85722    311768.94    15.590461 
  306500    1534.4237   -752.89031    283074.68    15.694297 
  307000    1439.4764    -756.9268    285156.03    15.565923 
  307500    1486.8713   -763.89966    289245.94    15.349148 
  308000    1431.6207   -752.28476     296254.3    15.640009 
  308500    1492.6061   -739.13775    314186.98    15.811488 
  309000    1552.7501   -737.58658    309883.66    16.057414 
  309500    1543.4737   -745.18233    277251.25    16.370732 
  310000    1583.1814    -730.2701    308869.34     16.57403 
  310500    1574.6965   -738.37202    304549.25    16.310424 
  311000    1493.5372   -745.20687    279049.72    16.504051 
  311500    1442.0909   -739.83329    297500.58    16.275042 
  312000    1477.2871   -738.84138    291436.84    16.574632 
  312500     1531.768   -732.47646    313670.74    16.610565 
  313000    1394.3382    -724.4262    310609.58    16.743108 
  313500    1506.1459   -729.32283    310249.44    16.772835 
  314000    1402.7484   -731.28591    304795.08    16.846325 
  314500    1537.0874   -729.71979    301066.14    16.763151 
  315000    1424.7681   -740.89097    300517.96    15.968272 
  315500    1506.5334   -747.46485     304430.4      15.5858 
  316000    1474.4503   -742.52739    302515.37    16.097206 
  316500    1610.0363   -741.52212    287893.06    16.516447 
  317000    1492.0296   -742.62471    296837.42     16.01324 
  317500    1476.3391   -747.26621    303319.59    15.624652 
  318000    1510.1165   -742.98479    290114.96    15.991178 
  318500    1570.4021   -739.42632    295627.58    16.225153 
  319000    1492.8209    -726.9296    319881.72    16.522127 
  319500    1450.5382   -743.51638    289559.96    16.281121 
  320000    1600.1854    -745.1599    286326.67    16.055419 
  320500    1497.9924    -755.1379    308533.77    15.297171 
  321000    1463.5169   -758.49619    301389.59    15.352123 
  321500     1526.954   -757.79226     300816.3    15.426956 
  322000    1534.5441   -737.96645    309480.01    15.994719 
  322500    1570.3399   -753.69156    284464.88     15.78487 
  323000    1383.7775   -748.82124    292425.99    15.856227 
  323500    1533.3715   -754.85792    294922.08    15.579128 
  324000    1551.2035   -766.01357    307049.19    15.119238 
  324500    1544.6496   -759.12681    300873.91    15.400878 
  325000     1520.748   -756.72927    310616.91    15.310495 
  325500    1527.2494   -742.31598    317273.05    15.292907 
  326000    1593.3326    -751.3688    308411.86    15.264649 
  326500    1484.0042   -762.03652    287535.51    15.468903 
  327000    1489.5035    -761.3362    278922.89    15.494005 
  327500    1498.2694   -749.99884    295247.76     15.63533 
  328000    1447.0141   -744.20082    307587.24    15.664533 
  328500    1399.1651   -761.16569    313280.59    15.058696 
  329000    1567.6576   -760.62486    312418.44     15.03475 
  329500     1684.324   -759.48205    306865.63    15.013336 
  330000    1509.0236   -752.45585     299415.9    15.558437 
  330500    1481.7667   -759.33653    297625.81    15.308878 
  331000     1535.571   -756.45093    290587.96    15.466562 
  331500    1526.5492   -761.38054    279107.34     15.39732 
  332000    1442.4746   -763.16469    278772.62    15.537551 
  332500    1341.6072   -756.45061    294777.88    15.373881 
  333000    1519.8586   -753.18014    305617.55    15.438563 
  333500    1487.9567    -764.0121     303584.5    14.996906 
  334000    1542.8286   -764.13139    307455.19    15.090343 
  334500    1544.3208   -757.70519    316217.57     15.09563 
  335000    1486.7259     -747.646    303510.26    15.614869 
  335500     1465.219   -769.00063    289362.64    15.127688 
  336000    1476.4785   -763.47507    299094.65    15.095272 
  336500    1359.7602   -760.59042    299196.54    15.039988 
  337000    1466.7028   -771.49873    279071.06    15.112411 
  337500    1577.7042   -770.26155    280329.57    15.116137 
  338000    1515.8664   -764.05956    286860.29    15.137519 
  338500     1428.227   -763.86056    296767.47    15.031233 
  339000    1462.5027   -766.66161     292142.7    15.036674 
  339500     1474.347   -761.82894    300228.71     15.12045 
  340000    1642.6846   -757.21703    315801.99    15.076766 
  340500    1491.3915   -756.22279    317095.83     15.02201 
  341000    1512.1504   -754.70272    316057.19    15.016272 
  341500    1499.8139   -752.03488    319860.48    15.237984 
  342000    1446.4384   -751.81833    314275.97    15.199896 
  342500    1629.9481   -754.92463    298175.24    15.426156 
  343000    1501.6416   -771.06265    286022.92    15.229805 
  343500    1531.3662   -769.92386    272435.01    15.488422 
  344000    1513.9861   -762.82086    290137.65     15.31004 
  344500    1525.1344   -761.23152    291608.21    15.387566 
  345000    1564.1271   -760.01543    304477.47    15.216199 
  345500    1614.6187   -757.55881    310787.37    15.137333 
  346000    1556.2735   -756.31004    312262.13    15.062096 
  346500    1546.3552   -758.01306    317519.35    15.005859 
  347000    1587.8012   -757.30186    323629.41     14.99212 
  347500    1510.1026   -748.86324    337388.07    14.992555 
  348000    1534.7442   -759.42461    310299.83    15.052155 
  348500    1627.2964   -763.06482    294830.35    15.033173 
  349000    1432.9074   -758.42476    291778.28    14.942898 
  349500    1492.6159   -758.22095    291739.93    15.452364 
  350000    1399.7433   -759.79983    292658.26    14.976623 
  350500    1475.6883   -749.06038    304019.45    15.495536 
  351000    1451.5823   -759.84186    298528.38    15.397261 
  351500    1524.7637   -753.05029    305649.74    15.366005 
  352000    1498.9297   -742.05218    309951.93    15.946053 
  352500    1394.9344   -737.37181    287991.46    16.663265 
  353000    1411.9147   -733.69027    304420.09    16.546306 
  353500    1549.4498   -740.10387     285895.6    16.683287 
  354000    1447.0782   -730.78712    319132.99    17.094611 
  354500    1457.5452   -729.75418    300375.82    16.904221 
  355000    1540.4651   -736.47649    292821.55    16.924483 
  355500    1390.1267   -728.68539    313839.99     16.72678 
  356000    1462.1748   -729.99564    308694.07    16.666084 
  356500    1577.8448   -727.50028    312502.02    16.833169 
  357000    1457.9775   -739.87218    280357.13    16.898048 
  357500    1410.5893   -731.05881    296703.66    16.865532 
  358000    1652.4525   -728.86679    309991.75    16.660917 
  358500    1533.3133   -735.87353    303591.04    16.202447 
  359000     1476.847   -749.32947    273595.31    16.355827 
  359500    1452.6433   -735.23635    307092.17    16.512556 
  360000    1541.2508   -740.54635       289386    16.433412 
  360500    1519.0178   -741.68104    291044.09    16.258887 
  361000    1529.8803   -732.14251    314825.94    16.459579 
  361500    1550.2074   -730.10211    317853.25    16.216872 
  362000    1632.2121   -742.64134    283701.59    16.511789 
  362500    1422.9512     -732.519    298924.73    16.948127 
  363000     1405.724   -742.07801    280793.57    16.587637 
  363500    1309.5773   -740.68017    302897.41    16.067327 
  364000    1515.1114   -754.09048    294411.06     15.61059 
  364500     1534.493   -758.54624    298163.92    15.346046 
  365000    1616.9985   -760.59014    303988.78    15.129296 
  365500    1623.4184   -753.39697    313514.28    15.196886 
  366000    1569.8595   -752.58017     314449.1    15.306607 
  366500    1517.2798   -753.36213     325019.2    15.078906 
  367000    1499.8978   -752.76214    314818.86    15.066321 
  367500    1452.1541   -756.77316    304887.11    15.062139 
  368000    1469.0079   -760.56113    304818.64    15.125157 
  368500    1411.3346   -765.09253    289481.35    15.253182 
  369000    1615.7508   -760.81598    287684.43    15.451814 
  369500    1473.6564   -764.20918    282823.95    15.530499 
  370000    1509.8152   -765.51461    291386.49    15.042054 
  370500    1493.4949   -763.52669    298397.63    14.985677 
  371000    1499.3557   -764.06634    300234.66    15.067014 
  371500    1394.6043   -759.22121    307793.61    15.083789 
  372000    1560.9406   -764.30924     308450.6    15.101135 
  372500    1584.6082   -754.29745    319313.76    15.219408 
  373000    1675.3991   -759.08865     309677.7    15.093273 
  373500    1499.6161   -755.15191    312817.03    15.000518 
  374000    1604.5886    -753.2931    319287.47    15.006925 
  374500    1568.5149   -759.04003    300620.54    15.256931 
  375000    1509.3552   -765.25045    286947.93    15.091625 
  375500     1455.678   -764.07456    291415.21     15.04107 
  376000    1333.8241   -768.23458    291938.38    15.061676 
  376500    1462.5618   -762.61651    295712.62    14.963715 
  377000    1564.9289   -756.83661    308779.46    15.003398 
  377500    1585.3158   -752.82867    308176.48    15.409211 
  378000    1417.2079   -761.24973    299544.22    15.016414 
  378500    1565.6899   -756.56594    297982.53    15.465009 
  379000     1639.864   -757.24794    283840.35    15.581152 
  379500    1539.2258   -763.54508    296350.63    15.138701 
  380000    1581.1525   -756.18864    302759.51    15.315251 
  380500    1514.2631   -757.77875    303992.54    15.337061 
  381000    1537.0176   -752.50174    310650.53     15.34915 
  381500    1505.0949   -739.23877    300718.61    16.095442 
  382000    1583.2359   -741.40356    286921.02    16.712166 
  382500    1612.5597   -742.86401    285415.35    16.549487 
  383000    1613.0346   -737.73913    294227.76    16.668484 
  383500    1777.9483   -727.81701    316820.17    16.858185 
  384000    1542.7385    -742.0549    294469.73    16.367491 
  384500    1645.7297   -732.83806    302400.09    16.905565 
  385000    1570.2979   -727.73154     307879.6    16.788093 
  385500    1426.7554   -724.86324    316482.63    16.644558 
  386000    1518.6462   -742.53707    285455.33    16.422321 
  386500    1696.7245   -736.58043    297505.05    16.688705 
  387000    1550.9906   -727.37713    314354.29    16.741564 
  387500    1431.3693   -732.86212    296753.28    16.810421 
  388000    1498.1901   -741.92226    277992.76    16.871235 
  388500    1530.7218   -737.67662    285666.46    16.843887 
  389000    1345.7231    -726.0663    319400.52    16.627059 
  389500    1705.2651   -730.98744    309787.03    16.918182 
  390000    1566.0361   -739.17282    294653.87    17.033988 
  390500    1596.6038   -739.26642    289332.45    16.623312 
  391000    1540.8112   -731.27295    304245.91    16.701439 
  391500    1599.5947   -731.60688    310548.65    16.569358 
  392000    1546.3759   -734.63641    307241.23    16.320476 
  392500    1572.5358    -742.9603    280132.92    16.707562 
  393000    1363.1131   -733.65566    308306.57    16.384236 
  393500    1642.8235   -734.52002    311412.25    16.376915 
  394000     1499.955   -747.32547    285260.58    16.377157 
  394500    1572.5939   -723.71899    323492.18    16.669415 
  395000    1548.3978   -729.59032    310449.71    16.831674 
  395500    1549.8977   -734.71329    301980.73    16.637774 
  396000    1465.7673   -733.87458    303070.75    16.426515 
  396500    1459.5374   -733.18938    304265.86    17.040276 
  397000    1515.6329   -738.39441    292815.16    16.532365 
  397500    1417.0919   -737.98566    304819.73     16.11062 
  398000    1621.1164   -733.47276    303877.17    16.524514 
  398500    1543.0218   -736.12239    291198.01    16.791165 
  399000    1517.0478   -733.72613    303537.05    16.806464 
  399500    1475.6253   -733.14415    303652.94    16.626687 
  400000    1355.7431   -737.63466    295365.91    16.379955 
  400500    1527.2668   -723.63467    310901.96    16.868306 
  401000    1432.4973    -731.3879     300250.9    16.916616 
  401500    1555.4726    -741.9343     276221.1    16.978731 
  402000    1571.6354   -731.01986    302281.62    16.834855 
  402500    1502.9727   -727.86288    303697.09    16.799264 
  403000    1489.3144   -722.78899    315926.45    16.759332 
  403500    1653.6742   -733.56611     304264.7    16.715856 
  404000    1487.5942   -729.99385     303363.2     16.82089 
  404500    1405.6082   -729.53416    309603.59    17.154131 
  405000    1610.2489   -735.76821    305253.34    16.453478 
  405500    1548.6894   -733.80284    299297.23    16.565074 
  406000    1494.2748   -728.42963    317174.22    16.183547 
  406500    1447.2131    -744.6303    303986.88    15.811906 
  407000     1538.382   -755.06018    276634.19    15.819319 
  407500     1500.961   -752.76514    293127.31    15.667335 
  408000    1494.8585   -742.68642    302378.85    15.859467 
  408500    1655.6176   -738.28158    296370.79    16.436692 
  409000    1543.7986   -735.52437    295690.55    16.844111 
  409500    1531.4908    -731.3734    301928.48    17.026097 
  410000    1388.0627   -726.19009     317237.6     16.53379 
  410500    1368.0955   -740.47005    280270.63    16.551334 
  411000    1655.5321   -736.52369    297060.99    16.935881 
  411500    1498.5414    -726.7297    316442.18    16.795576 
  412000    1467.3685   -741.74297    277809.85    17.124047 
  412500    1605.8373   -741.55261    291768.66    16.417561 
  413000    1478.5666   -735.68071    305563.22    16.224621 
  413500    1530.3509   -738.05692    292414.87     16.48175 
  414000    1540.0072   -736.88554    294372.92    16.468618 
  414500      1376.54   -744.53591    290427.18    16.063101 
  415000    1395.3962   -754.62043    283735.86     15.66037 
  415500    1534.0577   -746.00724    297020.92    15.784767 
  416000    1433.6164   -740.49974    307864.72    15.919507 
  416500    1543.3044   -731.47608    308241.36    16.287233 
  417000     1638.186   -745.14575    286555.08    16.210667 
  417500     1535.822   -749.49512     299626.2    15.741699 
  418000    1420.4927   -762.00975    291565.19    15.247432 
  418500     1542.069   -767.36516    280032.74    15.285066 
  419000    1353.3388   -747.13524    297459.25    15.816487 
  419500     1448.141   -740.29052    311632.97    15.863763 
  420000    1583.6213   -747.42461    315352.99    15.493785 
  420500    1486.9134   -758.14442     309703.5    15.045715 
  421000    1594.9698   -750.85402    305791.58    15.379584 
  421500    1541.3929   -748.29688    295376.76    15.764195 
  422000    1512.3533   -751.15998    277428.85    16.076453 
  422500    1436.7071   -739.44566    311018.05    15.948647 
  423000    1580.1366   -745.78814    312812.14    15.561609 
  423500    1426.4463   -748.92355    291964.17    15.723469 
  424000    1522.0504   -764.76376    285523.44    15.286958 
  424500    1418.3207   -763.26098    285711.05    15.331595 
  425000    1449.6923   -760.19069    291679.28    15.320789 
  425500    1548.5856   -760.97706    297238.61    15.342947 
  426000    1538.1559   -759.46566     307499.8    14.978374 
  426500    1501.0892   -755.90604    310686.52     15.06676 
  427000     1508.591   -749.15509    327396.36    15.258177 
  427500    1578.1783   -749.95707    308559.64    15.289656 
  428000    1558.9802    -756.0961    301033.33    15.441294 
  428500      1456.37   -765.41635    294024.95    15.055086 
  429000    1485.2815   -754.21387    300319.33    15.500134 
  429500    1661.0301   -760.17286    298465.77    15.267866 
  430000    1467.5606   -764.38343    287541.85    15.330595 
  430500    1455.7581   -767.55115       285802    15.246572 
  431000    1512.0428   -757.48833    298073.61    15.419374 
  431500    1361.2337   -761.26085    287664.65     15.36411 
  432000    1537.5495   -755.80177    294984.94    15.455252 
  432500    1458.5345   -753.35222    305217.27    15.491763 
  433000    1512.4664    -756.9632    311506.68    15.153963 
  433500    1534.3596   -749.32941    325434.57    15.166352 
  434000    1432.3934   -754.06635    304212.75    15.374125 
  434500    1402.1501   -757.78261    301080.91    15.416371 
  435000     1564.047   -761.91892    302252.76    15.131178 
  435500    1539.9475   -760.53664    304184.88    14.988739 
  436000    1459.0871   -762.88943    301989.64    15.024879 
  436500    1486.0326   -759.48225    301181.86    15.328032 
  437000    1521.9965   -757.37484    286552.74    15.655954 
  437500    1468.9121   -747.41928    287666.51    15.824546 
  438000    1379.7317   -751.44918    292585.11    15.545971 
  438500    1430.6321   -746.41691    300678.49    15.749648 
  439000    1433.9089    -733.8045    317400.47    15.918873 
  439500    1631.5006   -738.33061    291383.85    16.586659 
  440000    1344.4568   -733.96072    300323.99    16.724681 
  440500    1542.0323   -744.20396    289233.46    16.378077 
  441000    1559.0514   -738.04751    303985.62       16.329 
  441500    1484.9335   -727.99026    310819.97    16.726265 
  442000     1429.253   -733.47446    291052.88    16.882681 
  442500    1331.2148   -736.16399    282546.24    16.945758 
  443000     1451.989   -739.62666    282337.38    16.940224 
  443500    1602.6867   -736.33287    304407.96    16.855426 
  444000    1476.8347   -732.79379    309131.59    16.536649 
  444500    1364.8223   -732.00357    291481.56    16.872348 
  445000    1422.9036   -732.06607    306126.12    16.766301 
  445500    1594.3412   -728.32479     313567.4    16.782469 
  446000    1528.1687   -725.91422    310460.11    16.859964 
  446500    1531.6355   -738.10468    288830.02    16.646764 
  447000    1531.7547   -736.81489    296669.11    16.504081 
  447500    1412.2697    -735.0026     307504.1    16.343665 
  448000    1471.3827   -732.72099    319453.79     16.02337 
  448500    1672.9264   -743.67484    310043.91     15.78161 
  449000    1596.1063   -747.61361       281706    16.189481 
  449500    1446.8141   -744.00667    291720.98     15.99004 
  450000    1629.8705   -747.94435    314006.27    15.581041 
  450500    1621.3165   -757.91928    311689.09    15.188019 
  451000    1418.9527   -751.89044    319391.33    15.135827 
  451500    1481.1874   -756.29521    304666.23    15.195944 
  452000    1423.6288   -759.40725    301701.71    15.227148 
  452500    1508.9075   -756.67604    298660.06    15.355717 
  453000    1613.2496   -756.76875     300644.4    15.410952 
  453500    1504.3069   -754.58968    301322.62    15.353114 
  454000    1493.8257   -745.08449    293248.88    16.093657 
  454500    1523.1887    -741.5025    283235.65    16.312001 
  455000    1453.1877   -733.52757    296269.06    16.854906 
  455500    1559.8317   -733.42653    303883.66    16.558815 
  456000    1342.5019   -743.85309    291082.14    16.049788 
  456500    1515.0073   -750.74508    292852.64    15.786333 
  457000     1495.363   -739.08182       306925    15.998406 
  457500    1404.7742   -732.31918    304132.74    16.510282 
  458000     1450.177   -747.02317    276299.63    16.390937 
  458500    1499.5296   -738.47737    298531.14    16.566203 
  459000    1543.5928   -738.61301    307583.51     16.16195 
  459500    1538.4786   -741.55574     309348.9    15.757454 
  460000    1469.8357   -744.26578    308213.95    15.624701 
  460500    1457.8083   -744.20449    286383.87    16.145138 
  461000    1433.7484   -741.53234    283666.94    16.542128 
  461500    1446.7992   -732.28642    305115.13    16.378968 
  462000    1567.6645   -734.49013    305353.86    16.475344 
  462500    1435.2723   -734.26127    292365.97     16.91874 
  463000    1537.5443   -735.01557    308482.97    16.638328 
  463500    1603.5081   -737.60549    294048.07    16.277499 
  464000    1434.9206   -737.27571    301754.27    16.440915 
  464500    1617.0782   -729.48843    319492.19    16.212863 
  465000    1386.7047   -745.82553    303747.22    15.577487 
  465500    1411.2564   -751.32385    295478.03    15.605758 
  466000    1529.1408   -748.51179    278224.76    16.259498 
  466500    1593.4626   -731.76974    298636.74    16.821396 
  467000    1509.0275   -730.63954    307877.72    16.551537 
  467500    1471.1495   -736.13319    287409.61    16.593694 
  468000    1473.2159   -731.27421    307867.77    16.368482 
  468500    1584.7818   -738.32529    295099.19    16.663864 
  469000    1461.3506   -741.43115    293668.51    16.097066 
  469500    1485.8259   -753.23843    295055.27    15.658434 
  470000    1605.2037   -742.55315    305272.29    15.765062 
  470500    1534.4011   -725.01115    330735.35    16.404205 
  471000    1506.0593   -728.92047    308489.08    16.819276 
  471500     1485.096   -734.22781    302258.55    16.731704 
  472000    1448.7432   -733.33441    297625.11     16.77266 
  472500    1570.9685   -733.04061    302467.66    16.494276 
  473000    1569.9916    -734.9089    320233.58    15.927635 
  473500    1597.4057   -742.37601    292542.11     16.36353 
  474000    1504.6909   -736.79575     290238.5    16.503961 
  474500    1459.0723   -730.20657    316048.62     16.39493 
  475000    1482.3712   -736.28025    308161.46    16.313216 
  475500    1301.5145   -738.12034    290872.59     16.44251 
  476000    1475.9949   -730.29076    312678.87    16.494074 
  476500    1390.0103   -736.66336    304099.02    16.113748 
  477000    1645.1396   -738.26892    301865.15    16.179901 
  477500    1379.5542   -732.68853    302704.32     16.88884 
  478000    1589.2644   -735.49712    295218.95    16.949411 
  478500     1480.689   -740.30283    278370.89    16.946237 
  479000    1577.8723    -730.8443    304935.41    16.860467 
  479500    1596.1217   -731.90905    300558.49    16.865172 
  480000    1489.2797   -733.98523    297063.24    16.721777 
  480500    1547.2402   -740.97674    294827.81    16.172965 
  481000    1561.4472   -744.38256    282964.95    16.294643 
  481500    1501.8964   -745.87168    293084.01    16.030582 
  482000    1473.0999   -735.98602    316636.38    15.952315 
  482500    1421.8687   -748.50925    311256.94    15.591312 
  483000    1522.8358   -748.70712    293506.17    15.670594 
  483500    1375.5397   -739.93577    293786.78    16.260416 
  484000    1441.7017   -730.83513    310189.03    16.601872 
  484500     1547.845   -736.39331    289969.92    16.840701 
  485000    1557.6715   -733.65358    314090.34    16.517172 
  485500    1512.1511    -732.0937     308053.8    16.472393 
  486000    1409.1597   -738.17821    290293.65    16.799453 
  486500    1471.7482   -735.08024    293346.58    16.842005 
  487000    1538.1154   -726.69706    320728.91    16.790714 
  487500    1621.7215   -737.18468     307636.2    16.272434 
  488000    1490.7715   -738.26998    295524.26    16.241587 
  488500    1601.0138    -730.0474    303882.16    16.861134 
  489000    1530.6074   -742.58763    277051.63    16.864345 
  489500    1463.0388   -734.27204    309604.85    16.479458 
  490000    1485.4857   -735.11743    308618.28    16.471121 
  490500    1534.7664   -739.66579    298286.56    16.389275 
  491000    1458.5102   -736.40361    294573.66    16.280497 
  491500     1403.153   -736.33496    289851.26     16.79435 
  492000    1511.7127   -732.41458    308519.91     16.65621 
  492500     1607.337   -736.63578    290424.61    16.912622 
  493000     1649.312   -730.17715    307475.83    16.644213 
  493500    1578.8842   -739.18443    298547.41    16.142857 
  494000    1619.7929   -741.40126    292274.56    16.178844 
  494500     1573.859   -749.74273    302324.22    15.515968 
  495000    1367.5185   -758.19864    302955.46    15.327847 
  495500    1678.0512   -742.75531    305376.51    15.728272 
  496000    1499.8876   -752.54878    287897.82    15.852664 
  496500     1478.935   -753.49229    278428.89    15.717894 
  497000    1524.9914   -754.81413    304629.69    15.410475 
  497500    1636.9428   -749.88026    306173.57    15.533372 
  498000    1564.4714   -743.61195    298793.48     15.87152 
  498500    1519.9269   -756.62333    299722.48    15.357885 
  499000    1601.6169   -765.35845    299796.52    15.119561 
  499500    1488.7837   -755.78028     300684.3    15.340102 
  500000    1585.9746   -759.12317    302254.93    15.264845 
  500500    1459.6218   -749.63098    316260.21    15.359581 
  501000    1555.7037   -759.42505    310711.09    15.058703 
  501500    1512.1967   -754.56291    293152.31    15.393481 
  502000    1489.3405    -765.7859    285832.71    15.333347 
  502500    1511.1316    -772.6812    269869.53    15.241039 
  503000    1453.9721   -765.05463    285962.31    15.125057 
  503500    1492.1116   -756.36282    299093.75    15.431596 
  504000    1391.6821   -753.40068    304207.83    15.282133 
  504500    1392.9513   -753.16628    312912.77    15.204973 
  505000    1543.5035   -752.29515    322921.41    15.178666 
  505500    1524.7763   -750.88567    325182.08    15.131745 
  506000     1429.213   -763.16714    306823.21      14.9727 
  506500    1484.4801   -758.94027    300800.49    15.095621 
  507000    1486.2302   -763.96691    292149.58    15.170554 
  507500    1538.1167   -768.53868    282833.23    15.164965 
  508000    1447.6587   -760.28933    301393.69    15.295398 
  508500    1525.7729   -741.94303     318880.8    15.407819 
  509000    1477.4147   -735.60592    322336.59    15.729796 
  509500    1472.3294   -743.59286    298549.17    15.965281 
  510000    1555.5316   -746.19116    277949.88    16.452322 
  510500    1455.5771    -731.4495    304306.65    16.601371 
  511000    1508.1751   -746.47992    274354.55    16.756759 
  511500    1468.7356   -739.14115    297402.28    16.595133 
  512000    1544.2281   -727.48537    315783.85    16.663598 
  512500    1363.1522   -735.01003    290468.78    16.749815 
  513000    1584.0534   -746.86492    288630.83    16.189309 
  513500    1668.5124   -735.35142    316432.59    15.873992 
  514000    1508.0446    -742.4209    303863.85    15.755745 
  514500     1449.631    -750.2694    291913.41    15.920468 
  515000    1567.7474   -742.26467    285567.11    16.497533 
  515500    1514.9968   -723.42345     313030.1    16.536902 
  516000    1670.7336   -734.41256     302743.7    16.997614 
  516500    1494.0095   -740.52165    288795.74    16.518064 
  517000    1605.6641   -732.07629    302026.51    16.958244 
  517500    1435.3392   -742.07659    284865.74    16.997451 
  518000    1417.3002   -730.01223    302691.22    16.876796 
  518500    1542.3237   -733.43672    303539.52    16.807916 
  519000     1621.464   -738.54023    291399.03    16.722751 
  519500     1407.585   -739.70932    300103.02    15.948469 
  520000    1463.5845   -744.87614    302847.74    15.623156 
  520500     1481.921   -750.16893    299798.17    15.557796 
  521000    1578.4442   -758.65519    306160.54    15.151397 
  521500    1652.0301   -750.30719     319507.1     15.33654 
  522000    1503.2054   -752.81251    322566.98    14.970824 
  522500    1476.8254    -752.9518     309032.8    15.300874 
  523000    1445.0674   -762.26352    290837.01    15.283782 
  523500    1531.9235   -757.64449    289348.18    15.289939 
  524000    1505.0341   -759.76319    301993.18    15.141629 
  524500     1548.397   -767.79109     293172.1    15.126956 
  525000    1504.9302   -756.01638    291891.63    15.528998 
  525500    1522.8956   -753.24365    304662.29    15.213755 
  526000    1447.4879   -748.13964    318887.49    15.290717 
  526500    1650.5327   -750.48178    312447.57    15.384347 
  527000    1633.3755   -758.51044    310731.49    14.977912 
  527500    1692.9755   -762.40486    293770.81     15.24482 
  528000     1478.366   -762.26605    291350.34    15.378584 
  528500    1594.9104   -766.33167    280527.32    15.180117 
  529000    1400.3177    -769.9128    287027.26    15.177409 
  529500    1495.0275   -767.55774    284672.81     15.35654 
  530000    1423.8394   -759.98068    288392.46     15.34669 
  530500    1451.5442   -763.66371    292691.96    15.253323 
  531000    1433.6046   -762.46332    304211.87    15.053767 
  531500    1570.7022   -758.08455    306724.74    15.345746 
  532000    1464.6205   -754.40748    303030.33    15.367661 
  532500    1479.8215   -739.68714    299917.43    16.004761 
  533000    1528.5722   -729.69718       315309    16.571223 
  533500    1370.7436   -730.07057    310095.18    16.610497 
  534000    1482.1021   -735.82402    295713.61    16.643708 
  534500      1437.55    -735.2264    293821.61    16.746372 
  535000    1374.6201   -728.97371    299588.55     16.96494 
  535500    1554.1843   -720.98138    331234.63    16.912566 
  536000    1520.7591   -735.70618    292330.53    17.026226 
  536500    1553.5239   -741.88386    278559.03    16.911067 
  537000    1527.6757   -745.30197    273749.44    17.154774 
  537500    1583.5311   -729.40497    315692.34    17.000612 
  538000    1493.1103   -731.04236    306679.45    17.002499 
  538500    1525.9248   -731.28367    302947.88    17.022049 
  539000    1430.0023   -733.23397    301899.53    16.419392 
  539500    1361.2934   -732.76217     291017.6    17.028715 
  540000    1550.8185   -737.12135    293329.55    16.528099 
  540500    1561.2839   -730.39369     314009.4    16.479442 
  541000    1491.4714   -737.39431    286520.78    16.963058 
  541500    1514.2742   -737.62657    280930.15    17.041959 
  542000    1476.7984    -730.7902    300713.06    16.873892 
  542500     1435.951   -734.47355    301694.62    16.536961 
  543000     1341.675   -740.73697    291671.17    16.234183 
  543500     1535.716   -733.71375    314307.09    16.295312 
  544000    1423.7622   -726.28937    325619.41     16.47859 
  544500    1483.2865    -733.7702    297924.36    16.582858 
  545000     1496.851    -734.6959    288845.67    17.059474 
  545500    1416.0186   -737.10076    286001.74     16.90383 
  546000    1540.8034   -724.20759    315815.01    16.782198 
  546500    1444.3254   -725.45568    326375.38    16.633831 
  547000    1419.3343   -734.87455    292315.12    16.871623 
  547500    1471.0402   -736.23622    297251.47    16.741148 
  548000    1709.8528   -732.98492    304867.01    16.596011 
  548500    1388.8347   -732.99577    305053.78    16.464269 
  549000    1345.8103   -734.10846    305916.24    16.160665 
  549500    1562.6889   -754.21263    272496.78    16.041266 
  550000    1543.9526   -738.44452    310208.87    15.985748 
  550500    1720.5523    -736.6534    301711.56    16.179109 
  551000    1569.1819   -735.37759    295426.78    16.878067 
  551500    1415.7011   -733.10097     298865.7    16.901629 
  552000     1403.477   -731.28233    308064.44    16.713101 
  552500    1452.8518     -724.205    313243.32    16.900563 
  553000     1417.267   -730.73657    307085.12    16.868852 
  553500    1470.2833   -736.61232    293874.51    16.350155 
  554000    1434.1956    -738.7508    297828.61    16.132948 
  554500    1563.3744   -735.24355    297651.61    16.765468 
  555000    1487.2533   -735.96475    295369.17    16.806682 
  555500    1391.4053   -744.98201    271595.31    16.849609 
  556000    1447.4803   -735.59956    292402.07    16.576701 
  556500    1445.6125   -734.10856    309570.45    16.562316 
  557000    1552.7055   -733.16668    300680.95    16.915411 
  557500    1577.4038   -737.84237    285775.69    16.969033 
  558000    1529.7168   -732.95553    305498.06    16.936007 
  558500    1545.6972   -732.40315    298871.99    16.747934 
  559000    1459.5861    -736.6056    290792.25    16.619242 
  559500    1388.9465   -738.49295    308968.15    16.021535 
  560000    1603.4266   -752.90583    304651.44    15.463051 
  560500     1368.617   -757.11548    293514.41    14.957442 
  561000    1598.8524   -749.92833     293523.8    15.567156 
  561500    1488.1251   -754.59273    304198.57    15.236571 
  562000    1583.7347   -743.39315    307320.81    15.841027 
  562500    1503.4226   -754.98601    308169.14    15.323779 
  563000    1519.6381   -754.27539     301764.9    15.347048 
  563500    1395.7247   -770.13693    288020.76    15.054461 
  564000    1635.0248    -760.8346    288414.33    15.489331 
  564500    1603.5548   -768.10165    291259.75    15.229319 
  565000    1566.9962   -769.00422    281512.83    15.173592 
  565500    1613.5687   -755.98092    301717.29    15.211113 
  566000    1453.9277   -750.44603    310106.07    15.379949 
  566500    1520.8321   -740.76003       306201    15.774615 
  567000    1418.5965    -764.3078    284054.71    15.435677 
  567500    1586.8075   -768.16655     286279.2    15.080226 
  568000    1421.8194   -762.76986    285291.77    15.375623 
  568500    1418.3822   -766.09618    292214.76     15.15141 
  569000    1506.0261    -752.3749    316129.41    15.169376 
  569500    1620.8192   -750.12066    314149.64    15.285363 
  570000    1498.0793   -757.60475    307163.03    15.207321 
  570500    1588.4249   -753.44078    305202.73    15.298746 
  571000     1696.227   -751.12089    320916.98    15.204968 
  571500     1394.492    -750.7446    318322.26    14.917655 
  572000    1513.5982   -759.60323    302906.06    15.011699 
  572500    1573.6008   -760.99183    296235.28    15.283653 
  573000    1519.0267   -765.48876     291092.2    15.284024 
  573500     1536.027   -763.99177    290080.65    15.368973 
  574000    1592.1574   -760.94516    303024.75    15.115916 
  574500    1475.0508   -749.46814    320834.66    15.201732 
  575000    1573.9112    -757.4747    308424.54    15.107972 
  575500    1598.2473    -764.5139    295822.43     15.23447 
  576000    1462.4175   -762.10676    294099.05    15.203627 
  576500    1537.8497   -764.56441    295244.93    15.080448 
  577000     1475.845   -762.22045    305687.06    14.987597 
  577500    1447.4956   -755.94989    310496.33    15.263021 
  578000    1587.0029   -753.53353    321580.52     15.09186 
  578500    1483.7998   -748.92066    315227.13    15.269042 
  579000    1317.2212   -755.03932    308659.44    15.285421 
  579500    1444.9345   -767.63816    297828.03    15.001887 
  580000    1523.5952   -766.06018    290628.93    15.135898 
  580500    1495.9633   -766.72899    292886.18    15.103198 
  581000    1344.9824   -774.29728    271306.65    15.200719 
  581500     1383.305   -770.79058     280483.7    15.177919 
  582000    1427.5741   -766.08601    292488.76    15.126759 
  582500      1505.44    -764.6819    299822.26    15.161392 
  583000    1534.7904   -750.15466    324324.29    15.306607 
  583500    1526.7561   -751.11894    314667.34    15.238908 
  584000    1426.3725   -747.78095    310731.59    15.317987 
  584500     1518.987   -753.43298    289757.55    15.622566 
  585000     1405.717   -752.13248    279470.02    16.000717 
  585500    1513.5099   -751.02944    289227.36    15.713753 
  586000    1573.7194   -740.83031    315461.48     15.63344 
  586500    1617.3878   -736.57002    307510.59    15.939018 
  587000    1579.8972     -752.413    309237.68    15.241799 
  587500    1497.7847   -758.22899    298293.85    15.108401 
  588000    1514.4587   -761.57167    298301.75    14.997155 
  588500    1491.3165   -752.56167    297090.55    15.417452 
  589000    1401.2467   -762.79083     298732.2    15.030918 
  589500     1521.581   -748.73453    298061.85    15.574505 
  590000    1425.6788   -765.17741    293917.19    15.074736 
  590500    1574.7441   -756.81894    306092.17    15.324577 
  591000    1309.0103   -753.83468    320541.48    15.067456 
  591500      1609.94   -757.20602    309926.17    15.225185 
  592000    1477.1668   -748.89796    318034.42    15.233449 
  592500    1441.0157   -751.06883    320762.21    15.228711 
  593000    1617.5912   -757.73579    305592.41    14.996003 
  593500    1468.0907   -763.90239    302996.53    15.031105 
  594000    1430.4177   -764.08505    296808.07    15.118531 
  594500    1549.1797   -771.71417    277716.13    15.242488 
  595000    1560.3777   -771.49564    278959.73    15.136841 
  595500    1410.2578   -761.31398    296947.35    15.116199 
  596000    1540.0811   -760.32388    310574.17    15.078307 
  596500    1515.5559   -747.18038    314011.26    15.534672 
  597000    1527.8322   -752.58393    311506.94     15.15655 
  597500    1443.5236   -756.34995    304078.37    15.178105 
  598000    1543.1107   -755.49797    307435.29    15.231662 
  598500    1467.6112   -759.31404    295887.08    15.323246 
  599000    1556.8798   -767.14355    291839.67    15.029661 
  599500    1553.3683   -763.47802    291400.88    15.311622 
  600000    1538.3781   -761.83203    302764.21    14.957585 
  600500     1401.325   -755.87576    297447.89    15.306733 
  601000    1454.0454   -761.83137       296419    15.161974 
  601500    1404.2131   -756.57113    302785.81    15.367462 
  602000    1469.1295   -767.20671    295008.24    15.052108 
  602500    1526.1731   -762.67037    293561.18    15.294558 
  603000    1565.8449   -762.96362    304290.02    15.219015 
  603500    1535.6117    -754.1919    312513.84    15.329943 
  604000    1565.7341   -752.29203     323811.2    15.040547 
  604500    1527.1209   -762.45847    307265.23     15.00769 
  605000    1494.3002   -761.07411    296512.04    15.004265 
  605500    1416.5347   -765.83315     284918.7    15.052115 
  606000    1382.9609   -767.19748    281671.16    15.322962 
  606500    1414.0872   -764.01438    281884.25    15.378356 
  607000    1560.2144   -756.07514    299805.18    15.285525 
  607500    1553.8909   -756.48802    305863.83    15.229394 
  608000    1496.8346   -748.02788    334561.37     15.21095 
  608500    1580.6934   -759.87367    311206.18    15.038683 
  609000    1476.2441   -757.50913    310216.93    15.309648 
  609500     1539.487   -753.66819    311269.86    14.986186 
  610000     1495.116   -759.83838       298988    14.980542 
  610500    1630.0882   -766.35563    293213.36    15.076556 
  611000    1510.7935   -769.75808     279669.1     15.20423 
  611500     1396.911   -761.27158    287406.58    15.216664 
  612000    1671.6513   -752.70174    305726.99    15.493049 
  612500    1500.1471   -754.54274     312360.3    15.241882 
  613000    1555.4873   -755.14776    309166.52    15.249133 
  613500    1527.8343   -752.49294     308584.7    15.238599 
  614000    1487.6232   -762.26429    294831.01    15.198563 
  614500    1487.9737   -744.90342    303297.28    15.815619 
  615000    1590.8306   -737.28309    302981.38    16.322395 
  615500    1447.1176   -727.57639    313228.77    16.898638 
  616000    1613.8423   -734.53148    304972.09    16.720248 
  616500     1536.754   -739.56624    285549.74    16.836112 
  617000    1597.4347   -739.33857    281397.17    16.931836 
  617500    1521.0543   -727.36946    323000.61    16.410263 
[...]
 4848500    1417.4246   -736.89214    290134.36    17.031499 
 4849000    1447.4902   -731.81958    307196.48    16.834515 
 4849500    1595.9565   -732.89268    306988.04    16.867609 
 4850000    1488.3772   -741.24016    288149.56    16.432232 
 4850500    1573.1376   -723.20094    318510.17     16.63059 
 4851000    1616.4591   -726.78167    312068.65    16.801419 
 4851500    1366.5462   -736.74699    295201.34    16.875571 
 4852000    1586.2186   -735.28698    284753.81    16.880466 
 4852500    1466.4153   -737.16796    289595.34    16.878849 
 4853000    1446.6409   -728.18108    310787.93    16.762508 
 4853500    1424.4692   -736.21033    287989.44    16.981721 
 4854000    1472.5195   -737.57863    298466.32    16.351054 
 4854500    1433.7819   -740.71714    304313.58    16.009371 
 4855000    1640.2308   -733.29265    315864.92     15.94443 
 4855500    1498.0121   -744.42889    292778.09    15.963302 
 4856000    1444.8219   -750.18961    279091.49    15.798359 
 4856500    1492.1548   -756.14921       275613    15.775036 
 4857000     1466.149   -752.61355    290183.72    15.664726 
 4857500     1603.316   -746.95014    302827.45    15.870772 
 4858000    1474.7895   -738.10316    325339.19    15.629985 
 4858500    1559.4008   -754.04034     303151.3    15.518174 
 4859000    1423.9084   -764.98965    294395.85    15.084472 
 4859500    1412.4349   -764.63435    291359.61    15.297643 
 4860000    1470.3146   -766.63009    287137.49    15.146448 
 4860500    1509.5185    -767.5072    277315.38    15.443019 
 4861000    1539.3494   -755.84845    282385.62    15.681883 
 4861500    1361.8444   -750.98025    294505.39    15.644406 
 4862000    1548.6544   -760.78734    300968.38    15.158946 
 4862500    1427.0351   -758.92508    304349.63    15.106467 
 4863000    1493.5068   -762.48993    300259.31    14.985753 
 4863500    1475.7217    -761.2618    298190.88    15.383733 
 4864000    1467.7223   -759.35999    306392.29    15.143327 
 4864500      1479.93   -763.49424    288802.74    15.336327 
 4865000    1601.1794   -767.64957    281776.17    15.311188 
 4865500    1519.3486     -770.004    284300.19    15.146769 
 4866000    1467.2118   -766.50012    291338.92      15.1342 
 4866500    1485.6833   -757.91501     307506.2    15.189025 
 4867000    1438.6988   -763.12026    301493.79     15.04998 
 4867500    1552.0092   -761.33325    295793.29    15.099407 
 4868000     1543.448   -767.59291     290429.6    15.080082 
 4868500     1468.268   -764.19695    295110.53    15.048774 
 4869000    1571.9252    -760.8007    315839.52    15.028985 
 4869500    1455.2727   -758.25827    313661.73    15.020062 
 4870000    1539.3644   -761.41124    307003.28    15.119354 
 4870500    1391.8335   -756.23718    318780.86    15.100454 
 4871000     1497.007   -757.15535    299702.55    15.261996 
 4871500    1398.9348    -770.3885    283803.31    15.080675 
 4872000    1447.1763   -768.20381    278053.43    15.379038 
 4872500    1427.6991   -761.52518    287723.89     15.43055 
 4873000     1573.039   -765.36897    291500.71     15.18408 
 4873500     1475.068   -761.43708    302088.76    15.076436 
 4874000    1506.8812   -756.39541    314364.73    15.072926 
 4874500    1508.8581   -756.67624    313930.11    14.967013 
 4875000    1590.5659   -759.89201    305564.14    15.093545 
 4875500    1504.8814   -766.10039    290704.16    15.183975 
 4876000    1387.1038   -762.01943    285420.69    15.521129 
 4876500    1350.3782   -764.89994    297897.27    15.048112 
 4877000    1460.7795   -762.66706    293032.64    15.318654 
 4877500    1490.2425   -745.05737    306920.74    15.695959 
 4878000    1535.6753   -752.43043    305332.91    15.393105 
 4878500    1385.3577   -761.61483    306169.44    15.042761 
 4879000    1473.9257   -761.24759    294669.14      15.2672 
 4879500    1431.3518   -765.77492    284997.75     15.25202 
 4880000    1590.7939   -762.95827    291656.59    15.320954 
 4880500    1530.2296   -764.05149    282967.47    15.370459 
 4881000    1577.3235   -764.61284    285311.23    15.320171 
 4881500    1484.3169   -759.55454    302051.01    15.245471 
 4882000    1519.2818   -756.58071    304491.46    15.288546 
 4882500    1427.3988   -757.89538    305360.71    15.259617 
 4883000    1520.4921   -745.13876     327706.2    15.145717 
 4883500    1457.7721   -754.93063    311750.08    15.282636 
 4884000    1476.8876   -755.97329    302879.15    15.190225 
 4884500    1330.0245   -760.64456    299756.31    15.025044 
 4885000    1612.6282   -761.29251    291849.88    15.335697 
 4885500    1617.3065   -762.19111    296601.01    14.961728 
 4886000    1454.7086   -747.55715    301703.47    15.639388 
 4886500    1433.9377   -738.31139    303513.83    16.354088 
 4887000    1650.7555   -736.85357    296221.67    16.472067 
 4887500    1509.0211   -730.11048    312593.95    16.374338 
 4888000    1537.8527   -743.03787    276012.53     16.89175 
 4888500     1459.722   -736.62726    296605.84    16.579886 
 4889000    1519.5945   -726.98916    317470.68    16.459078 
 4889500    1424.6644   -739.81946    282343.56    16.933851 
 4890000    1514.9146   -735.11205    289355.34    16.831841 
 4890500    1446.0609   -729.48009    307460.22    16.977074 
 4891000    1455.7928   -729.67352    310252.97    16.536054 
 4891500    1473.2336   -735.84107     305929.9    17.042122 
 4892000    1545.9358   -732.81356    295861.61    16.487333 
 4892500    1569.4039   -734.97178    298595.79    16.584349 
 4893000    1478.2156   -731.53613    303958.71    16.743236 
 4893500    1507.8133   -730.40113    311650.71    16.683183 
 4894000    1409.5117   -731.93939    300893.18    17.016877 
 4894500    1476.2215    -740.9153     289245.3    16.441385 
 4895000    1663.2595   -740.78961    304709.93    16.161694 
 4895500     1585.777   -733.07188    322705.11    16.036987 
 4896000    1519.8469   -737.37006    287139.36    16.788085 
 4896500    1500.4643   -736.98752     296236.8    16.544859 
 4897000    1546.6398   -732.70129    303966.77    16.925016 
 4897500    1503.4068   -731.83053    291502.42    17.114258 
 4898000    1539.0655   -735.14629    303504.96    16.441396 
 4898500    1441.2179   -738.57643    291028.85    16.854248 
 4899000    1510.7072   -740.90008    281227.17    16.657308 
 4899500    1521.3982   -738.04777    297135.29    16.628358 
 4900000    1359.5266   -734.69011    295553.77    16.832444 
 4900500    1499.7886   -731.56437     297257.9    16.727417 
 4901000    1464.1499   -731.54873    310454.42    16.932528 
 4901500    1563.7516   -735.80611    296107.88    16.657791 
 4902000    1554.5904   -730.53883    314693.01    16.592759 
 4902500    1320.7254   -734.23105     299134.7    16.406153 
 4903000    1622.0471   -744.48934    283720.89    16.638462 
 4903500    1562.1496    -729.3497    310878.84    16.667323 
 4904000    1535.8223   -733.03283    295463.08    16.973076 
 4904500    1388.3457     -746.087    281673.67    16.373377 
 4905000     1418.821   -735.56662    305786.88    16.044622 
 4905500    1373.0759   -745.27677    269472.99    16.559027 
 4906000    1488.7406   -728.25367    314404.38    16.799189 
 4906500    1475.5566   -731.87414     304881.2    16.713444 
 4907000    1498.1828    -745.5996    273732.62    16.628773 
 4907500     1519.713   -734.83947    300310.11    16.699151 
 4908000    1465.3602   -725.83636    323106.42    16.516847 
 4908500    1475.7415   -732.37566     299724.6    16.698217 
 4909000    1608.2559   -740.41945    289501.08    16.568379 
 4909500    1570.5136   -731.57267    313124.74    17.026384 
 4910000     1585.262   -732.59129    299257.48    16.883627 
 4910500    1509.6237   -734.87557    296221.99    16.631489 
 4911000    1603.3975   -738.79477    307904.12    16.097766 
 4911500     1392.522    -744.6506    293911.25    15.814075 
 4912000    1479.0373    -763.1576    297276.58    15.140526 
 4912500    1490.2914   -763.90387    303814.92    15.021482 
 4913000    1388.3831   -761.71333    299146.12    15.095315 
 4913500    1558.7198   -760.60515    298611.44    15.284104 
 4914000    1522.5144   -762.08553    296443.39     15.21854 
 4914500    1483.0542   -760.48902    302321.04    15.306483 
 4915000    1465.2766   -747.68782    296604.49    15.618432 
 4915500     1521.995   -742.35648    290739.89    16.118609 
 4916000    1380.4676   -732.05171    320160.42    16.053047 
 4916500    1548.8543   -748.66943    298770.46    15.725015 
 4917000    1539.4098   -762.10922    287233.87    15.251332 
 4917500    1412.8655    -754.3893    293490.84    15.517578 
 4918000    1506.9028   -755.42891     285788.2    15.760711 
 4918500    1452.9031   -756.34173    292970.27     15.62994 
 4919000    1388.7769   -749.83642    318097.42    15.274653 
 4919500    1472.0464   -754.03295    318593.32    15.116606 
 4920000    1499.5894   -754.98595    308267.77    15.215009 
 4920500    1453.1435   -756.73125    312167.82    15.004731 
 4921000    1616.4099   -757.59024    299759.13    15.262636 
 4921500    1577.5861   -757.37561    288284.48    15.524247 
 4922000    1425.0904   -752.62798     286903.2     15.63263 
 4922500    1532.9142   -764.26207     285624.1    15.353913 
 4923000     1426.533   -776.31127    266831.21    15.319222 
 4923500    1392.0347   -764.17245    287049.17    15.238187 
 4924000    1474.8814   -762.80314    300096.95    15.201174 
 4924500    1678.6973   -757.59145    298149.94    15.412475 
 4925000    1460.9773     -747.418    295280.91    15.865541 
 4925500    1623.2122    -735.2138    306753.54    16.105147 
 4926000    1462.1846   -733.15944    301199.09    16.515154 
 4926500     1462.814   -730.40419     295881.7    16.957359 
 4927000    1400.4177   -733.51573    291398.53    16.544432 
 4927500     1654.045      -730.31    305807.06    16.909956 
 4928000    1342.2627   -741.75983    282558.18    16.652442 
 4928500    1534.7944   -732.71876    300844.19    16.813638 
 4929000    1414.6103   -729.70052    310702.46    16.661514 
 4929500    1467.0727   -739.13567    290347.34    16.580554 
 4930000    1409.4229   -741.99101    283908.92    16.693162 
 4930500    1596.6132   -727.12467    322707.75    16.317758 
 4931000    1555.1837   -736.79162    292782.04    16.630223 
 4931500    1598.2662   -740.61722    284945.69    16.821949 
 4932000    1493.4935   -735.59118    301712.91    16.386824 
 4932500     1534.468   -733.15796    304162.47    16.193951 
 4933000    1506.0284   -745.86051    286268.59    16.159502 
 4933500    1542.6014   -733.98831    307869.68     16.35793 
 4934000    1545.5776   -736.50329    314411.78    15.758877 
 4934500     1469.912   -757.65275    291309.19    15.583197 
 4935000    1479.4703   -766.19393    287013.41    15.247119 
 4935500    1508.0208   -768.07662    286227.65    15.214014 
 4936000    1498.4024   -759.18116    284212.32    15.545682 
 4936500    1515.4828   -750.82463    312551.19    15.259298 
 4937000     1483.561    -758.1961       304470    15.312792 
 4937500    1326.6781   -761.05896    304258.81    15.189027 
 4938000    1392.2335   -761.34567     298655.3    15.258117 
 4938500    1577.9811   -773.55847    280830.87    15.122551 
 4939000    1558.0474   -764.86143    289950.95     15.20053 
 4939500    1499.8948   -749.92466    304886.08    15.455607 
 4940000    1476.0434   -756.17492    307878.36    15.182648 
 4940500    1454.1977   -763.11158    305156.52    15.039347 
 4941000    1364.7353   -769.25832    288437.73     15.14632 
 4941500    1372.1119   -769.36112    283084.51    15.029074 
 4942000    1443.9135   -765.26558    287171.06    15.193625 
 4942500    1443.6565   -767.69675    292589.01    15.100039 
 4943000    1444.0609    -763.2175    304207.57    15.091522 
 4943500    1487.6461   -755.23834    306492.45    15.156319 
 4944000     1462.694   -753.44198    303451.96    15.405687 
 4944500    1573.6103   -764.26838    295829.29      15.3673 
 4945000      1432.37   -769.56053    280633.64    15.346946 
 4945500    1344.7991    -760.7486       289740    15.276222 
 4946000    1444.7977   -769.73302    274362.08    15.295235 
 4946500    1423.4229   -764.91014       288495    15.123123 
 4947000    1599.0017   -763.36444    292622.68    15.427163 
 4947500    1530.9134    -760.0095    299410.52    14.981104 
 4948000    1508.1581   -750.03144    305863.86    15.443689 
 4948500    1366.5051   -761.23788    313075.19     15.00857 
 4949000    1589.2865   -752.25773    310021.58    15.277479 
 4949500    1553.9875   -750.41785    293848.72    15.726525 
 4950000    1530.3621   -751.95819    279322.87    15.859771 
 4950500    1407.6521   -748.47213    287094.05    15.945846 
 4951000    1619.5037    -746.8557    308201.63    15.622187 
 4951500    1509.2157   -741.13895    314067.83    15.633832 
 4952000     1474.654    -742.5125    316100.11    15.645584 
 4952500    1412.7263   -757.43003    292264.53    15.526664 
 4953000    1634.3689   -759.13479     291733.4     15.40817 
 4953500    1427.1209    -766.1886    293894.27    15.140603 
 4954000    1417.0403   -756.05667    292394.08    15.626845 
 4954500    1431.2103   -744.61027    312312.22    15.713383 
 4955000    1415.3642   -740.13987    330701.83    15.531133 
 4955500    1522.0089   -746.53907    305081.35    15.537675 
 4956000    1468.3514   -761.40679    294089.35    15.190528 
 4956500    1513.7839   -766.89077    281685.54    15.184802 
 4957000    1497.8633   -759.40267    290064.14    15.352104 
 4957500    1578.1302   -766.26072    297629.48    15.095674 
 4958000    1507.9508   -747.39555    316415.27    15.363656 
 4958500    1718.6794   -752.38783    334202.78    15.119821 
 4959000    1337.8753   -753.55783    310143.67    15.035523 
 4959500    1465.4687   -761.96186    293214.31    15.327326 
 4960000    1601.9283   -763.04505    294812.06    15.073266 
 4960500    1584.9706   -759.35923    302010.31    15.035292 
 4961000    1520.8244   -758.81448    309408.43    15.064505 
 4961500    1619.0583   -757.39807    312272.09    15.066825 
 4962000    1607.1633   -752.54543    306945.58    15.297336 
 4962500    1529.8111   -756.73217    298500.15    15.381038 
 4963000    1541.1142   -767.47155    295057.62    15.111199 
 4963500    1649.8474   -759.68314    297007.62     15.25314 
 4964000    1429.3333   -759.12058    298382.27    15.192246 
 4964500    1512.4519   -747.23227    300050.86     15.75194 
 4965000    1588.9934   -750.00841    312612.03    15.403375 
 4965500    1471.8423   -754.07162    315962.83    15.187264 
 4966000    1629.1128   -758.45685    306091.72    15.176575 
 4966500    1483.8357   -763.06369    288008.04    15.050731 
 4967000    1621.4281   -766.44843    287815.84    15.167426 
 4967500    1506.7143   -763.41799    297312.77    15.122867 
 4968000    1465.5392   -749.46681    307304.12    15.414304 
 4968500    1476.6276   -748.07116     320095.7    15.255894 
 4969000    1348.8664   -755.03077    308512.78    15.212455 
 4969500    1506.8992   -760.83879    310114.73    15.117185 
 4970000      1487.91   -764.10545    288517.51    15.268297 
 4970500    1555.0156   -766.20179    286238.06    15.175316 
 4971000    1535.7747   -762.11384    292020.65    15.307756 
 4971500    1521.7947   -764.69217    287311.88    15.030129 
 4972000    1523.9739   -766.48961    293890.83    15.081557 
 4972500    1465.5773   -762.30821     300767.5    15.048682 
 4973000    1379.0731   -749.32853    322143.54    15.127854 
 4973500    1460.5362   -750.55381    323198.96    15.145504 
 4974000    1646.9359   -755.00388    316386.59    15.044152 
 4974500    1513.2554   -768.67019    297746.63    15.038905 
 4975000    1498.8373   -764.10506    291647.52    15.269621 
 4975500    1543.3145    -751.8335    285100.55    15.749529 
 4976000    1460.7516   -755.54684    284195.89    15.716052 
 4976500    1428.6785   -733.68966    311009.86    16.261857 
 4977000    1399.2709   -737.82172    294103.19    16.622992 
 4977500    1537.9526   -730.55888    297014.33    16.822843 
 4978000    1429.8257   -730.22407    310231.87    17.120881 
 4978500    1472.5909   -735.00571    296684.69    16.479005 
 4979000    1498.4965   -733.54212    300679.14    16.716445 
 4979500    1506.3395   -735.95473    301471.05    16.640233 
 4980000    1489.4411   -738.24254     289618.7    16.456794 
 4980500    1490.3634   -732.54065    307913.65    16.839984 
 4981000    1456.2163   -732.54642    309661.21    16.791854 
 4981500    1405.6858   -732.33169    291931.97    16.789267 
 4982000    1441.2647   -743.21135    290453.72    16.406188 
 4982500    1417.7618    -727.3246    321102.22    16.336975 
 4983000    1393.6439   -734.48358    297795.43    16.805817 
 4983500    1530.4832   -732.32215    297377.19    17.001945 
 4984000    1553.4433   -736.60967     303204.1    16.413064 
 4984500     1583.402   -730.61689    306013.06    16.668666 
 4985000    1336.6112   -743.98143    276106.79     16.61051 
 4985500    1434.5158   -728.23536    303299.32    16.808813 
 4986000     1502.713   -730.63177    309572.89    16.552017 
 4986500    1454.0951   -732.16907    304294.72    16.904595 
 4987000    1698.6864   -735.21359    312658.63    16.352848 
 4987500    1461.6264   -728.81892    297078.34    17.049907 
 4988000    1480.0444   -734.93001    298430.53    16.873857 
 4988500    1534.7417   -730.34876    310372.16    16.635009 
 4989000    1533.3265    -739.2167    299948.85    16.378019 
 4989500    1499.1172   -733.03449    300027.21    16.811792 
 4990000    1420.0477   -732.20511    299815.25    16.940353 
 4990500    1391.6281   -736.57661    288339.91    17.005953 
 4991000     1592.144   -725.57267    311172.68    16.832195 
 4991500    1477.8946   -731.72785    298285.29    16.831838 
 4992000    1414.9131   -733.96497    297209.98    16.850468 
 4992500    1572.3637   -740.20291    298169.04     16.58614 
 4993000    1602.1999   -734.94233    298737.49    16.659106 
 4993500    1356.4047   -736.30114    294843.55    16.619295 
 4994000    1477.6539   -739.77581    304053.97     16.03938 
 4994500    1450.4278   -733.40325       302779    16.353206 
 4995000    1473.9962   -738.27516    292966.65    16.791395 
 4995500    1510.3605   -726.00091    325690.54    16.436102 
 4996000    1644.3351   -728.91689    312230.25    16.646813 
 4996500    1562.8464   -744.34638    273871.05    16.707762 
 4997000    1385.1861    -728.3931    299696.89    16.922597 
 4997500    1484.0404   -736.00874     302470.5    16.768656 
 4998000    1458.9495   -734.94891    285258.51    17.047055 
 4998500    1514.1658   -730.09797    309631.56    16.618263 
 4999000    1470.9178   -736.50077    279923.58    16.958383 
 4999500    1465.1215   -727.53126    309541.35    16.778835 
 5000000    1431.0343   -731.23478    301761.44    16.856113 
Loop time of 2008.12 on 8 procs for 5000000 steps with 256 atoms

Performance: 430.254 ns/day, 0.056 hours/ns, 2489.897 timesteps/s
96.8% CPU use with 8 MPI tasks x no OpenMP threads

MPI task timing breakdown:
Section |  min time  |  avg time  |  max time  |%varavg| %total
---------------------------------------------------------------
Pair    | 846.16     | 875.82     | 911.55     |  70.4 | 43.61
Neigh   | 18.743     | 19.672     | 22.217     |  23.2 |  0.98
Comm    | 209.27     | 247.75     | 281.87     | 141.7 | 12.34
Output  | 35.644     | 35.649     | 35.677     |   0.2 |  1.78
Modify  | 810.03     | 813.23     | 815.74     |   6.3 | 40.50
Other   |            | 16         |            |       |  0.80

Nlocal:    32 ave 32 max 32 min
Histogram: 8 0 0 0 0 0 0 0 0 0
Nghost:    1063.38 ave 1067 max 1059 min
Histogram: 1 1 1 1 0 0 0 1 1 2
Neighs:    2773.5 ave 2787 max 2753 min
Histogram: 1 0 0 0 0 3 1 1 1 1

Total # of neighbors = 22188
Ave neighs/atom = 86.6719
Neighbor list builds = 175749
Dangerous builds = 0

write_data	data.final.${p_id}
write_data	data.final.2
Total wall time: 0:33:28
