LAMMPS (8 Feb 2019)
Processor partition = 3
echo both

include		in.partitions
variable p_id world   0 1 2 3
include		in.temp
variable	temperature equal 1500.0
variable	tempDamp equal 0.1 # approx 0.1 ps
include		in.pressure
variable	pressure equal 300000.
variable	pressureDamp equal 1.0
include 	in.seed
variable	seed world 74581 3459 97394 49764
units		metal
include		in.box
#variable        side equal 4
#lattice         fcc 4.046
#region          box block 0 ${side} 0 ${side} 0 ${side} units lattice
#create_box      1 box
#create_atoms    1 box
#change_box	all triclinic

variable 	mass equal 26.981539
read_data	data.initial
  orthogonal box = (0 0 0) to (15.1524 15.1524 15.1524)
  2 by 2 by 2 MPI processor grid
  reading atoms ...
  256 atoms
  reading velocities ...
  256 velocities
mass            1 ${mass}
mass            1 26.981539
include 	in.setup
variable	out_freq equal 500
variable	out_freq2 equal 500

neigh_modify    delay 10 every 1
include		in.al
### Argon Potential Parameters ###
pair_style 	eam/alloy
pair_coeff 	* * Al99.eam.alloy Al

timestep	0.002 # According to Frenkel and Smit is 0.001

thermo          ${out_freq}
thermo          500
thermo_style 	custom step temp pe press lx


restart 	${out_freq} Restart.lmp.${p_id} Restart2.lmp.${p_id}
restart 	500 Restart.lmp.${p_id} Restart2.lmp.${p_id}
restart 	500 Restart.lmp.3 Restart2.lmp.${p_id}
restart 	500 Restart.lmp.3 Restart2.lmp.3



# NPT

include		in.dump
dump            myDump all atom ${out_freq2} dump.al.${p_id}
dump            myDump all atom 500 dump.al.${p_id}
dump            myDump all atom 500 dump.al.3
dump            myDcdDump all dcd ${out_freq2} out.${p_id}.dcd
dump            myDcdDump all dcd 500 out.${p_id}.dcd
dump            myDcdDump all dcd 500 out.3.dcd
dump_modify	myDump append yes
dump_modify     myDcdDump append yes


timer 		timeout 23:50:00 every 1000
New timer settings: style=normal  mode=nosync  timeout=23:50:00

fix             1 all plumed plumedfile plumed.start.dat outfile plumed.out.${p_id}
fix             1 all plumed plumedfile plumed.start.dat outfile plumed.out.3
fix             2 all nph aniso ${pressure} ${pressure} ${pressureDamp} couple xy
fix             2 all nph aniso 300000 ${pressure} ${pressureDamp} couple xy
fix             2 all nph aniso 300000 300000 ${pressureDamp} couple xy
fix             2 all nph aniso 300000 300000 1 couple xy
fix             3 all temp/csvr ${temperature} ${temperature} ${tempDamp} ${seed}
fix             3 all temp/csvr 1500 ${temperature} ${tempDamp} ${seed}
fix             3 all temp/csvr 1500 1500 ${tempDamp} ${seed}
fix             3 all temp/csvr 1500 1500 0.1 ${seed}
fix             3 all temp/csvr 1500 1500 0.1 49764
fix		4 all momentum 10000 linear 1 1 1 angular

run             5000000 upto # 10 ns
Neighbor list info ...
  update every 1 steps, delay 10 steps, check yes
  max neighbors/atom: 2000, page size: 100000
  master list distance cutoff = 8.28721
  ghost atom cutoff = 8.28721
  binsize = 4.1436, bins = 4 4 4
  1 neighbor lists, perpetual/occasional/extra = 1 0 0
  (1) pair eam/alloy, perpetual
      attributes: half, newton on
      pair build: half/bin/atomonly/newton
      stencil: half/bin/3d/newton
      bin: standard
Per MPI rank memory allocation (min/avg/max) = 4.017 | 4.017 | 4.017 Mbytes
Step Temp PotEng Press Lx 
       0    1414.9716   -816.23515    248923.17    15.152402 
     500    1496.7612   -768.71727    277984.43    15.178773 
    1000    1553.8313   -768.70985    285763.56    15.255585 
    1500     1497.909   -764.15117    288702.59    15.324655 
    2000    1401.8346   -772.97736    271007.69    15.274378 
    2500    1424.3563   -766.21704     278208.4     15.14001 
    3000    1546.5577   -767.50967    284982.07    15.171844 
    3500     1463.878   -764.23747    291235.73    15.258397 
    4000    1403.6958   -759.97325    291958.43    15.343439 
    4500    1487.4539   -760.16729    295002.27    15.342489 
    5000    1513.8568   -763.60108    299772.29    15.287431 
    5500    1431.0822   -759.76733    297701.49    15.337518 
    6000    1572.1095   -762.53603    294467.61    15.248317 
    6500    1546.6359   -763.51156    298960.12     15.15979 
    7000    1496.7559   -759.46467    312262.37    15.190738 
    7500    1395.0532   -757.89467    312856.37    15.163254 
    8000     1508.786   -756.43159    317474.83    15.138128 
    8500    1592.1418   -752.69347       311199    15.216767 
    9000    1524.2127   -759.10332     308630.2    15.189296 
    9500    1530.6379   -761.50963    296741.09    15.256638 
   10000    1470.0471   -767.77538     294385.2    15.178876 
   10500    1444.6139    -765.7128    290137.71    15.109353 
   11000    1414.2164   -764.15329    289941.12    15.255366 
   11500    1547.8154   -758.96768     290764.3    15.526717 
   12000    1494.0055   -767.41965    291523.81    15.232079 
   12500    1526.8702    -758.9689    299045.13    15.122168 
   13000    1434.4229   -757.99325    300258.66    15.241726 
   13500    1420.4454   -762.17785    295521.36    15.051081 
   14000    1566.7722   -761.92681    291016.39    15.293416 
   14500    1418.7532   -763.81356    289050.15    15.333544 
   15000    1455.0284   -763.58685    287504.97    15.319205 
   15500     1634.754   -765.42073    289186.74    15.111708 
   16000    1785.5177   -765.56076    301123.96    15.095459 
   16500    1373.8321   -754.66638    312768.98    15.099309 
   17000    1415.7554   -757.03302    310807.04    15.054571 
   17500    1540.0799   -755.66935    305062.61    15.373895 
   18000    1611.1284   -756.12048    307366.77    15.157006 
   18500    1521.8582   -759.50051    308951.13    15.201365 
   19000    1548.1111   -754.64566    319564.36    15.088229 
   19500    1508.8047    -751.6385     319891.6    15.077638 
   20000    1514.7707   -760.75308    310371.87    15.105201 
   20500    1537.9982   -753.80796    316004.69    15.140327 
   21000    1484.8735   -753.74863    310171.62    15.405747 
   21500    1410.2316   -753.96754    303644.87    15.462083 
   22000    1423.7775   -762.59985    298014.12    15.149534 
   22500    1464.3287   -756.05066    301633.71    15.338864 
   23000    1491.8078   -749.01617    310682.03    15.331213 
   23500    1533.4238   -750.22597    315294.41    15.239897 
   24000    1448.0966   -745.86291    313078.41    15.292349 
   24500    1369.3863   -745.42697    318339.31    15.285754 
   25000    1525.6548   -754.82153    307231.36    15.259411 
   25500    1610.0079   -753.74711    306362.22    15.307753 
   26000    1507.9623   -747.00092    314378.95    15.356406 
   26500    1367.8372   -751.28269    305559.52    15.458167 
   27000    1596.0574    -757.7208    297181.69    15.385606 
   27500    1463.7161   -761.67097    287719.24     15.36648 
   28000    1541.5655   -762.53849    274980.14    15.445829 
   28500    1468.5899   -765.03344    275696.63    15.427732 
   29000    1475.8924   -755.05275     296228.7    15.549182 
   29500    1425.3413   -759.15852    296118.01    15.328871 
   30000    1472.1601   -763.44049    291259.49    15.274392 
   30500    1595.5798   -755.83702    292216.54    15.539375 
   31000    1553.0199   -747.02674    306718.19    15.495521 
   31500    1501.4076   -753.21288     306917.2    15.409689 
   32000    1596.2276   -747.17786    318547.66    15.399008 
   32500    1586.4659   -750.67528    322771.03    15.104959 
   33000    1444.1543   -755.20862     315824.8    15.048859 
   33500    1527.1194   -755.53024    311266.95    15.129705 
   34000    1570.8768   -746.38422    315038.53    15.311962 
   34500    1492.0338   -753.05806    305942.77    15.319555 
   35000    1569.0375   -748.98542    287868.92    15.900298 
   35500    1622.7222   -734.40533     302427.2    16.777072 
   36000    1489.7759   -734.76782    307509.15    16.837415 
   36500    1407.3638   -726.15467    308671.83    16.793647 
   37000     1445.616   -731.18045    305849.25    16.688565 
   37500    1499.5248   -740.32519    285468.29    16.769243 
   38000    1441.2073   -737.08072     289804.6    16.842888 
   38500    1465.3967   -733.23223    298695.55    16.829231 
   39000    1532.4018    -733.5825    304203.04    16.753061 
   39500    1517.2523   -726.91688    325024.52    16.656806 
   40000    1526.0039   -734.63142    294862.72     16.75499 
   40500    1507.3187   -736.42152    291633.95    16.746854 
   41000     1435.754   -736.94208    285927.76    16.766174 
   41500    1492.9493   -727.74148    307145.76    16.601005 
   42000    1605.0881   -737.05266    295361.18    16.731218 
   42500    1468.0426   -727.32291       312436    16.752562 
   43000    1451.2604   -724.50278    323946.65    16.779247 
   43500    1556.1386    -725.6467    324291.84    16.659339 
   44000    1576.2356   -728.55919    317411.28    16.736371 
   44500    1443.7456   -736.33605    290857.76    16.874047 
   45000    1463.7001    -735.0272    294793.06    16.788153 
   45500     1525.677   -741.75011    270107.44     16.83006 
   46000     1451.717   -730.93483    309353.56    16.708044 
   46500    1488.0081   -720.11306    327225.82    16.754591 
   47000    1513.9049   -732.46132    310356.46     16.76623 
   47500    1574.2031   -737.97909    283613.44      16.7786 
   48000    1449.9356    -742.5586    279360.53    16.828391 
   48500    1434.4168   -734.36907    294826.39    16.789748 
   49000    1448.7763   -729.67251    311008.67    16.772649 
   49500    1450.8136   -726.36274     316773.8    16.616193 
   50000    1418.5228   -738.01846    289512.05    16.685805 
   50500    1525.4418   -734.22339    290994.67       16.744 
   51000    1623.7968   -735.22715    292268.04    16.784203 
   51500     1483.008   -734.65677     294022.7    16.964672 
   52000    1445.0791   -739.08179    285433.57    16.941207 
   52500    1529.5603   -733.60833    292039.83    16.784976 
   53000    1591.1072   -737.61191    296144.39    16.859061 
   53500    1546.7792   -730.10556    313312.86    16.799295 
   54000    1483.5231    -727.4287    319107.67    16.847744 
   54500      1541.98   -728.85455    310645.45    16.687864 
   55000    1345.2633   -733.63432    300879.78    16.632059 
   55500    1426.1653    -734.4276    302072.77    16.666587 
   56000    1491.4599   -737.61032    292472.92     16.74519 
   56500    1520.7755   -730.71428    301178.84    16.701825 
   57000    1553.1141   -732.52976    295134.43    16.709203 
   57500    1574.1726   -734.79304    298371.36    16.742698 
   58000    1375.3522   -729.58011     309392.6    16.793575 
   58500    1483.0745   -728.61384    303357.71    16.859971 
   59000    1587.0294   -734.98718    295526.06    16.689372 
   59500    1497.3504   -737.17119    287941.12    16.655274 
   60000    1410.0381   -728.95306    314806.36    16.634981 
   60500    1425.9927   -730.60186    307841.39    16.588206 
   61000    1415.2281   -735.88698    291451.18    16.675094 
   61500    1416.6463   -737.75979    286438.89    16.781723 
   62000    1500.8018   -736.85062    301834.67    16.819944 
   62500    1484.7564   -726.45547    326006.91     16.66522 
   63000    1304.3549   -725.02739    324333.88     16.68274 
   63500    1488.0984   -747.91064     263221.4    16.912563 
   64000    1489.7699   -733.41894    300929.08     16.79058 
   64500    1540.0489   -727.81733    317512.07    16.667172 
   65000    1451.6822   -733.28691    290130.07    16.746633 
   65500    1561.2251   -736.07871    295967.39    16.672817 
   66000    1553.2301   -726.84498    318383.05    16.715424 
   66500    1482.2563   -730.66998    302620.62    16.707343 
   67000    1524.0742    -736.1177    295236.09    16.695902 
   67500    1450.2539   -733.83312    299351.14    16.746552 
   68000    1429.0991   -734.49264    294281.13     16.59992 
   68500    1583.3253     -733.317     300460.9    16.603401 
   69000    1485.6104   -729.73519     306828.2    16.727096 
   69500    1603.6989   -736.08235    290908.52    16.735229 
   70000    1585.0749   -733.29094    296409.85    16.649731 
   70500     1444.788   -733.11352    299000.58    16.559702 
   71000    1543.9145   -737.86969    287204.55    16.765121 
   71500    1590.0961   -730.88284    307438.99    16.730208 
   72000    1466.4267   -732.41723    302481.17    16.745938 
   72500    1634.6791   -725.76519    324682.23     16.50031 
   73000    1569.2086   -732.32989    297760.71    16.635869 
   73500    1341.1834   -731.49639    294101.22    16.709204 
   74000    1410.1034    -727.4735    309329.45    16.735855 
   74500    1667.6334   -719.20288    344712.37    16.769342 
   75000    1516.6556   -737.07065    301217.72    16.853767 
   75500    1454.3898   -740.26319    281640.65    16.782359 
   76000    1482.5583   -740.94645    284088.71    16.674346 
   76500     1544.186   -724.47807    328375.27    16.624236 
   77000    1537.9542   -730.49909    309111.77    16.731523 
   77500     1579.477   -732.33359     305795.8    16.794602 
   78000    1682.5114   -727.48946    318045.86    16.831924 
   78500    1389.0215   -730.44329    303949.88    16.569904 
   79000    1580.6633   -730.76892    305784.58    16.792521 
   79500    1509.4958   -728.36492    314251.14    16.790818 
   80000     1437.028   -730.27196    305126.09    16.699325 
   80500    1535.7087   -735.95303    296478.39    16.831907 
   81000    1482.7911   -725.65995    321170.42    16.315839 
   81500    1535.5909   -728.65966    303412.75     16.90978 
   82000    1479.9126   -739.22324     286322.2     16.57496 
   82500    1507.0721   -733.47424    298151.67    16.689472 
   83000    1445.6404   -726.72491    310588.88    16.589994 
   83500    1562.0303    -731.6489    301854.02    16.938914 
   84000    1541.5112   -738.41527    285163.27    16.853497 
   84500    1581.3519   -735.33127    300415.34    16.725998 
   85000    1475.3556   -737.73024    297570.97    16.788201 
   85500    1442.9323   -724.63786     320596.6    16.339835 
   86000    1390.1791   -734.24228    295154.62    16.791286 
   86500     1562.175   -735.59632    290737.84    16.795764 
   87000    1426.7262   -732.03772    304543.32    16.497009 
   87500    1488.3457   -736.79778    287563.24    16.932973 
   88000    1461.1223   -729.46695    314335.35    16.385756 
   88500    1456.1729   -738.43075    298366.83    16.423687 
   89000    1523.6894   -737.90937    296632.84     16.59612 
   89500     1407.133   -733.08948    307554.17    16.636394 
   90000    1515.5398   -735.08619     301866.3    16.744621 
   90500    1559.7619   -730.46456    306518.63    16.417227 
   91000     1459.388   -734.40346    305078.21     16.83539 
   91500    1423.6126    -736.6879     290496.4    16.844011 
   92000      1465.98   -743.70981     284399.9     16.44565 
   92500    1463.1949    -733.6086    306611.86    16.466904 
   93000    1434.9918    -733.8849    309357.68    16.437439 
   93500    1495.5425    -737.1515    290718.18    16.782505 
   94000    1517.8662   -738.06848    291465.23    16.347125 
   94500     1562.861    -735.2734    307930.57    16.449769 
   95000    1459.0076   -738.63939     294813.7     16.59502 
   95500    1411.2285   -741.96002    285032.16    16.601597 
   96000    1635.7811   -723.94522    327135.05    16.393769 
   96500    1461.8087   -734.61436     296336.2    16.914718 
   97000    1403.1319   -731.95545    294955.28    16.784682 
   97500    1727.2539   -733.17401    303132.87    16.751894 
   98000    1443.7463   -737.16834    289414.48    16.710354 
   98500    1533.5327   -744.01033    286002.04    16.705873 
   99000    1473.7237   -731.95124    308216.76     16.37632 
   99500    1451.5478   -739.59474    288637.37    16.518735 
  100000    1347.3298   -737.59751     290635.8    16.572154 
  100500    1503.9848   -730.68124    319612.05    16.279401 
  101000    1507.2672   -737.68781    288904.31    16.508805 
  101500    1428.7795   -740.81939    283965.23    16.578459 
  102000    1602.0673   -731.25462    314432.58    16.555453 
  102500    1474.7054   -733.84689    294597.63    16.505075 
  103000    1475.4684   -740.94483    289244.91    16.591672 
  103500    1426.9378   -735.78191     319000.8    16.265239 
  104000    1414.2339   -731.90221     307193.8    16.395325 
  104500    1424.9317   -734.88901    307421.42    16.404054 
  105000    1590.4511   -729.91486    310124.93    16.588417 
  105500    1522.1788   -738.72209    293564.34    16.516734 
  106000    1516.2503   -744.37412    281026.86    16.349669 
  106500    1578.5137   -733.69771    303471.88    16.435403 
  107000    1438.4736   -734.40111    312631.99    16.480812 
  107500    1518.8471   -737.59466    287922.32     16.62558 
  108000    1388.4927   -735.50019    292800.15    16.537325 
  108500    1458.0314   -733.83488    305564.63    16.402566 
  109000     1534.883   -733.10728    304580.27    16.374494 
  109500    1439.7362   -728.44206    312648.47    16.809107 
  110000    1556.3893   -730.36513    305910.05    16.706539 
  110500    1503.2856   -735.32008    298737.72     16.25516 
  111000    1538.7826    -739.7863     292149.8    16.739164 
  111500    1453.7056   -738.48733    290114.67    16.722651 
  112000    1370.3089   -730.35639    308891.14    16.662365 
  112500     1517.801   -730.94906     310047.9    16.278149 
  113000    1509.9466     -737.428    294577.64    16.597747 
  113500    1446.0278   -740.14306    291421.83    16.490037 
  114000    1549.4829   -733.03642    303775.54     16.41385 
  114500    1441.2308   -739.79986    291356.51    16.294599 
  115000    1555.3481   -736.86035    302833.41    16.393375 
  115500    1521.3519   -737.28679    292542.22    17.061055 
  116000     1517.703    -734.8863    292968.09    16.851311 
  116500    1424.4212   -727.52447    311950.28    16.862555 
  117000    1501.8038    -727.4785    311003.18    16.313131 
  117500    1402.7116   -731.01007    306564.93    16.365028 
  118000    1366.7761   -739.01318    294099.64    16.432244 
  118500    1570.1398   -739.89328    300865.59    16.377451 
  119000    1464.2699   -729.98916    317704.67    16.252918 
  119500    1396.3692   -738.69454     289966.3    16.353231 
  120000    1593.8947   -742.81198    288814.45    16.517315 
  120500    1549.2953   -735.74818    305782.87    16.442176 
  121000    1559.9872   -744.90564    279668.78    16.525631 
  121500    1599.0861   -737.51704    299401.03    16.387385 
  122000    1622.3934   -743.89778    294640.26     16.11954 
  122500    1376.8003     -744.832    282395.71    15.951381 
  123000    1528.9976    -741.5631    300164.52    15.937931 
  123500    1728.6339   -742.38511     323373.3    15.727829 
  124000    1429.1581   -736.86644    318488.29    15.693021 
  124500    1581.4375   -744.09627    289483.27    16.102703 
  125000    1480.2185    -739.0705    295910.38    16.478345 
  125500    1447.0241   -737.34487    299245.93    16.429958 
  126000    1594.7263   -729.13953    318116.49    16.310142 
  126500    1412.2404    -733.2235    308954.03    16.391262 
  127000    1503.9919   -737.15642    291342.37    16.345023 
  127500    1591.9979   -734.08935    308703.12     16.29932 
  128000    1545.7641   -735.71465    298228.97    16.607084 
  128500    1427.5738   -734.21589    295973.07    16.683222 
  129000    1379.4143    -728.6724    311124.77    16.722268 
  129500    1420.7028   -735.78501    305782.94    16.103509 
  130000    1448.7853   -737.07292    295484.14    16.272368 
  130500    1555.4633   -739.62907    287387.79    16.584356 
  131000    1684.8397   -734.13493    306228.32    16.489873 
  131500    1518.4871   -739.32534    302488.78    16.162023 
  132000    1525.9763   -739.04785    293019.43    16.429159 
  132500    1541.6325   -741.88238     290190.4    16.679381 
  133000    1617.6219   -741.44894    309657.56    15.950313 
  133500     1434.704   -737.79283    303194.55     15.88937 
  134000     1421.801   -759.81961    287766.89    15.598688 
  134500    1529.1928   -758.78144    290103.39     15.37766 
  135000    1432.0084   -764.84353    291075.86    15.316778 
  135500    1514.5585    -760.6144    302874.16    15.198509 
  136000    1471.8664    -762.6815    299754.81    15.092979 
  136500    1607.3911   -767.04859     296989.3    15.063533 
  137000    1475.6661   -766.19064    292988.48    15.061368 
  137500    1494.2565    -773.4821    276578.33    15.134292 
  138000    1541.1338   -768.84854    276989.76    15.087853 
  138500    1482.3671   -768.66924    288902.88    15.162839 
  139000    1411.1278   -761.02067    308160.76    15.023874 
  139500     1526.554   -762.07312    313604.99    15.007625 
  140000    1526.8597    -765.4325     302669.2    15.137661 
  140500    1501.0422   -764.28103     292751.1    15.003791 
  141000    1505.7466    -761.2283    295982.76    15.134367 
  141500    1460.5853   -755.74993    313988.04    14.935794 
  142000    1447.8491   -755.53125    309667.25     15.49675 
  142500     1550.051   -758.36801    292872.45    15.592555 
  143000    1304.5143   -751.68308    277081.46    15.954098 
  143500    1602.8515   -730.95038    310845.17    16.392271 
  144000    1529.8254   -729.99027    318881.69    16.358209 
  144500    1420.9456    -731.8734    312504.26    16.353262 
  145000    1385.5782   -739.24188    295166.02    16.233139 
  145500    1462.2891    -749.3029    284506.25    16.062656 
  146000    1524.7521   -744.07337    312468.79    15.817774 
  146500    1609.9353   -737.71009    314324.81    15.955412 
  147000    1525.4584   -749.78337    289087.48    15.934602 
  147500    1516.3311   -749.77531    290461.06    15.959369 
  148000    1500.0905   -753.68093    302128.65    15.325798 
  148500    1491.2274   -739.61948    306723.45    15.887901 
  149000    1554.8207   -747.74012    286966.39    15.961478 
  149500    1446.8275   -756.82548    293437.77    15.508741 
  150000    1527.5666    -749.9111    304171.32    15.489352 
  150500    1545.9944   -747.27392    320464.32    15.361241 
  151000    1627.8567   -746.37232    324792.67    15.340333 
  151500    1512.4992   -755.44364    307775.25    15.296998 
  152000    1442.2039   -749.41599    306495.89    15.535252 
  152500    1466.2448   -752.29977    288906.39    15.728456 
  153000    1599.0321   -743.04513    291522.01    16.107813 
  153500    1498.6339   -739.34114    301633.99    16.078254 
  154000    1635.5622   -733.63247     309112.7    16.366234 
  154500    1376.3922   -744.32919    302093.22    15.734755 
  155000    1440.8639    -756.4855    294994.42    15.443585 
  155500    1313.0981   -754.18362    290114.56     15.55889 
  156000    1488.8767   -754.13992    293829.46    15.689065 
  156500    1343.8199   -746.56961    315875.88    15.434838 
  157000    1658.7467   -750.27874     313477.9    15.510534 
  157500    1560.5226   -745.11179    295382.48    15.947795 
  158000    1527.1946   -736.78689    291169.53    16.474297 
  158500    1408.0467   -744.94028    290697.78    16.083674 
  159000    1398.5745   -753.74761    297644.27    15.652688 
  159500    1572.3042   -758.56624    302628.34     14.89266 
  160000    1622.0939   -764.38359    298021.35    15.136656 
  160500    1524.2127   -761.15626    295602.59    15.073242 
  161000      1579.33   -757.23766    302248.37    14.947483 
  161500    1612.2144   -762.07072    303915.51    15.111787 
  162000    1537.8084   -759.49958     306475.6    15.049842 
  162500    1422.1269   -756.12417    306648.53    15.032581 
  163000    1507.9533   -763.42664    300326.64    15.122195 
  163500    1574.3923   -768.46525    292009.75    15.064461 
  164000    1543.6453   -772.84647    284253.06    15.126289 
  164500    1382.4716   -764.06025    287252.64    14.987207 
  165000    1432.5128   -768.13103    295608.18    15.147585 
  165500    1410.2691   -758.01161    312059.66    14.935426 
  166000    1502.6731   -753.85577    321195.08    15.045105 
  166500    1582.3173   -753.63858    331547.03     15.01193 
  167000    1467.4954   -754.19135    316670.53     15.03379 
  167500     1465.156   -763.08944    308513.27    15.063152 
  168000    1670.3382   -759.84608    304475.86    14.986777 
  168500    1521.2865   -768.63539    282234.08    15.208334 
  169000     1458.333   -766.49419    291500.35    15.122719 
  169500    1585.8268   -760.76913    299172.99    15.024524 
  170000    1434.6226   -759.05007    310951.67     15.15727 
  170500    1618.8175   -759.48323    313163.66    15.127069 
  171000    1560.7964   -761.64231    306320.95    15.023052 
  171500    1347.3542   -758.82976    305134.19    15.098356 
  172000    1489.5675   -760.30667    308375.42    15.024551 
  172500    1467.7039   -769.90998    288342.68    15.187318 
  173000    1393.0751   -760.67241    286473.31    15.025825 
  173500    1488.5556   -768.94838    287546.81    15.132853 
  174000    1425.0383   -761.95098    297332.18    15.031526 
  174500    1475.4128     -754.386    315386.37     15.16229 
  175000     1603.936   -766.62467    300510.58    15.078667 
  175500     1499.252   -763.23121    302859.51    15.056951 
  176000    1498.7096   -761.04328    300034.83    15.053117 
  176500    1590.1739   -767.24714    284753.55    15.190506 
  177000     1459.023   -767.24683    286824.17    15.039406 
  177500    1563.4534   -765.58791    293743.99    15.136614 
  178000    1520.7825   -757.86214    307147.82    15.001957 
  178500    1503.2782   -756.96352    316903.54    15.045467 
  179000    1522.4768   -759.41827    317910.65    14.986722 
  179500    1542.9632   -755.90275    316686.18    15.056595 
  180000    1555.0536   -755.79556    314574.67    14.968247 
  180500    1653.8522   -760.08576    311883.65    15.086239 
  181000    1503.8935   -762.33583    307344.06    14.985694 
  181500    1461.3099   -763.16227    300628.04    15.131367 
  182000    1379.7572   -764.43842    291015.34    15.370404 
  182500    1465.0099   -764.05575    278098.56    15.452059 
  183000    1483.0466   -760.27624    280209.21    15.607202 
  183500    1549.6287   -762.99232    285537.34    15.512657 
  184000    1403.0027   -759.76735    286511.45    15.520885 
  184500     1582.465   -760.46537    297294.89    15.413344 
  185000     1493.235   -750.50821    310098.96    15.384131 
  185500    1524.7935   -751.91271    304914.56    15.400565 
  186000    1418.4689   -752.67641    312553.24    15.350233 
  186500    1357.3419   -744.28094    329850.33    15.285466 
  187000    1454.0692   -745.06967    323055.88    15.355903 
  187500    1411.7338   -751.75127    315097.79    15.296835 
  188000    1622.5475   -746.84525    309442.18      15.5607 
  188500    1615.2402   -757.28283    299389.52    15.301612 
  189000    1440.1499   -757.32844    284540.41    15.507342 
  189500    1561.3817   -761.10912    279146.53    15.588116 
  190000    1530.3998   -761.60817    277822.42     15.55866 
  190500    1467.5938   -762.06575    276504.92    15.494351 
  191000    1442.5657   -752.89397    303130.67     15.47293 
  191500    1479.9433   -753.17032    302103.43    15.344654 
  192000    1488.2887   -752.75573    302617.29    15.479355 
  192500    1482.5584   -760.32683    302581.19    15.262748 
  193000    1488.3215    -744.6357    300190.47    15.985521 
  193500    1450.9596   -742.16714    308633.25     15.71395 
  194000    1492.9787   -738.48075    301520.33    16.014163 
  194500    1664.0935   -741.71833     292775.3    16.520966 
  195000    1585.2438   -748.35814    286050.04    16.100031 
  195500    1580.4258    -745.3846    298919.68    15.900342 
  196000    1620.4362   -743.19683    322347.26    15.461879 
  196500    1451.6408   -747.99883     313701.5    15.451731 
  197000    1478.0297   -755.91176    308742.05    15.312908 
  197500    1434.6044   -746.05994    296702.96    15.778392 
  198000    1567.0045    -756.0449    278164.53      15.6823 
  198500    1419.9997   -763.05909    283731.98     15.43803 
  199000    1493.9478   -757.46173    290014.65    15.413696 
  199500    1573.8971   -753.98921    308613.49    15.442822 
  200000    1578.6795    -751.7379     315696.5    15.374151 
  200500    1533.9204   -754.39122    312630.61    15.253237 
  201000    1506.6867   -748.34733    321996.66    15.441496 
  201500    1425.0991   -759.71493    302643.52    15.273914 
  202000    1448.1961   -761.22979    298566.14    15.221084 
  202500    1444.2071   -761.51998    306642.68    14.958574 
  203000    1451.3471   -764.02568    299728.04    15.070913 
  203500    1529.5127   -764.33568    295981.36    15.143384 
  204000    1426.9649   -766.07985    291881.49    15.023725 
  204500    1590.9856   -764.48259    292500.53    15.078752 
  205000    1418.5687   -760.45781    294748.36    15.076537 
  205500    1641.9234   -760.71231    304628.18    15.046785 
  206000    1539.6837   -761.77826    299955.39    15.101656 
  206500    1460.9701   -765.96148    293983.26     15.15294 
  207000    1474.7157   -768.06581    287966.86    15.147819 
  207500     1486.142   -764.30372    293818.47    15.028345 
  208000    1549.1758    -769.4397    295101.93    15.096434 
  208500    1449.7148   -764.96326    296386.07     15.11143 
  209000    1598.5352   -762.25317    301835.76    15.019945 
  209500    1441.5292   -761.85332    300594.67    15.098828 
  210000    1390.6555   -763.70064    297964.88    15.127162 
  210500    1391.6966   -761.73572    301908.02    15.008928 
  211000    1431.5994   -765.26042    303518.04     15.05398 
  211500    1564.2386   -760.03927    303197.01    15.095871 
  212000    1435.8017   -755.87181    322516.77     14.96671 
  212500    1404.9579   -762.75486    305940.64    15.053165 
  213000    1565.1742   -761.73313    309347.29    15.020777 
  213500    1509.0175   -754.29139    319216.67    15.043355 
  214000    1638.0655   -754.96912     320759.5    14.975458 
  214500    1418.1628    -763.2088    304133.76    15.018056 
  215000    1301.0945   -764.72545    293730.69    15.042429 
  215500    1490.9439   -764.39129    292452.69    15.083767 
  216000    1359.4153    -763.2481    297306.04    15.092778 
  216500    1518.8938   -762.57702    299642.93    15.042353 
  217000       1459.1   -765.74372     294561.1    15.119098 
  217500    1531.6332   -766.47361    299749.53    15.040891 
  218000     1560.889   -768.16607    294655.37    15.123685 
  218500    1462.4793   -763.97123    293831.48    15.084127 
  219000    1471.2418   -768.42623    284587.22    15.093224 
  219500    1485.8883   -773.21204    272033.14    15.267948 
  220000    1490.3963   -756.17293    280053.28    15.575375 
  220500    1564.3064    -756.4892    287850.17    15.492369 
  221000    1453.1577   -745.67973    300956.95    15.654288 
  221500    1539.4478   -749.16682    323100.44    15.303301 
  222000    1623.2142   -755.59262    308106.81    15.364915 
  222500    1438.9033   -753.84105    304107.64    15.482405 
  223000    1589.8422   -762.90136    299903.68    15.126881 
  223500    1444.2596   -754.49478    298971.85    15.477125 
  224000    1628.0565   -742.76813    301106.99    15.875403 
  224500    1503.9414   -734.35685    299571.43    16.588506 
  225000    1507.3428   -737.71941    296718.71    16.279349 
  225500    1668.7749   -732.91593    323773.22    16.200365 
  226000    1454.4763   -736.69031    295832.61    16.506893 
  226500    1472.4031   -746.37622    291897.83    16.236337 
  227000    1500.1034   -729.63529    319077.38    16.278154 
  227500    1593.6376   -738.45603    301719.19    16.234158 
  228000    1612.3437   -740.61791    283727.28    16.500782 
  228500    1435.9391   -742.34817    288174.68     16.25562 
  229000    1528.4193   -728.35532    322315.95    16.467512 
  229500    1362.5305   -739.49571    287154.29    16.421017 
  230000     1495.125    -736.5391    291134.33    16.578817 
  230500    1414.7268   -729.20314    318477.21    16.237301 
  231000     1564.053   -739.46347    297451.56     16.52706 
  231500     1506.571   -744.20888    286621.03    16.147895 
  232000    1542.8998   -746.88694    311234.23    15.507134 
  232500    1496.8258   -744.58213    319890.87    15.449516 
  233000    1611.6934   -740.02074    314390.65    15.842048 
  233500    1516.0956   -742.88255    293874.86    16.082597 
  234000    1535.9181   -743.96631    294395.54    15.949991 
  234500    1563.7887   -739.51714    313987.84    15.758821 
  235000    1575.8577   -751.21428    314712.17    15.317544 
  235500    1519.4238    -740.4378    309210.91    15.801575 
  236000    1474.3169   -742.87638       294287    16.104103 
  236500    1464.7677   -750.47267    281533.34    15.941507 
  237000    1491.1517   -745.58992    294386.41    15.863559 
  237500    1463.0712   -738.84314    310672.22    15.858635 
  238000    1601.1993   -740.63162    321270.76    15.593821 
  238500    1570.5833   -754.10618    307383.33    15.382894 
  239000    1466.7971   -749.25307     292371.7     15.87813 
  239500    1481.5859   -743.90515    285691.07    16.619589 
  240000    1402.8673   -736.47727    303526.23    16.388492 
  240500    1453.4477   -734.86538    313357.92    16.368561 
  241000    1395.5038    -747.5483    278057.63    16.265142 
  241500    1436.9755   -747.36452    295292.42    15.840208 
  242000    1490.0243    -744.1106       306505    15.829068 
  242500    1638.1141   -752.24502    315211.51    15.313168 
  243000    1501.6814   -743.18021    314123.43    15.652301 
  243500    1490.3401   -734.10768    307291.91     16.12123 
  244000    1413.2206   -735.81608     303686.3     16.33531 
  244500    1370.8493   -747.83395    292892.48    15.828495 
  245000    1519.4219   -754.20184    281712.12    15.799599 
  245500    1613.9223   -760.90833    293156.07     15.39107 
  246000    1564.9891   -749.95423    301952.69     15.52801 
  246500    1492.2954   -747.22348    317089.87    15.459215 
  247000    1497.3323    -747.0872    330378.79    15.316006 
  247500    1411.9091   -748.62103    315625.53     15.40638 
  248000    1530.9624   -748.84378    307827.12    15.414553 
  248500    1547.6979    -748.7961    296940.85     15.80685 
  249000    1485.0118   -741.10561    281856.14    16.393517 
  249500    1450.7227   -733.57397    309186.76    16.161081 
  250000    1580.4749   -744.67342    301434.38    15.715236 
  250500    1511.5631   -759.74551    288556.89    15.347606 
  251000    1609.7474    -760.4179    292842.04     15.35051 
  251500    1532.1647   -748.99428    312695.77    15.425219 
  252000    1582.1229   -740.76663    316325.09    15.512935 
  252500    1466.6515    -748.3116    323989.95    15.201481 
  253000    1597.9038   -746.45223     313408.5     15.37739 
  253500    1400.1133   -756.98371    300992.58    15.457448 
  254000    1447.6832   -755.03723    282736.59    15.644463 
  254500    1522.0222   -751.12075    286026.41    15.707041 
  255000    1471.4159   -759.38085    299121.24    15.341844 
  255500    1537.3246   -756.12301    306936.82    15.246165 
  256000    1478.4732   -735.99702    311026.37    15.970013 
  256500    1452.1861   -741.27433    293310.49    16.179129 
  257000    1609.2889   -740.19269    290766.99    16.638335 
  257500    1429.8327   -730.95479    302285.32    16.792683 
  258000    1395.4737   -724.94192    317078.43     16.83184 
  258500    1617.8714   -734.06227    297148.36    16.907676 
  259000    1550.4351   -731.27504    301765.67    16.912707 
  259500    1443.7235   -726.18407     314220.6    16.836888 
  260000    1435.0559   -738.38919    287643.74    16.904729 
  260500    1510.9303   -738.32737    289857.74    16.947958 
  261000    1541.0571   -725.36244    318894.41    16.935464 
  261500    1681.5455   -728.05742    307254.76    16.915778 
  262000    1551.7112   -735.83988    293627.93    16.896743 
  262500    1336.5176   -740.28791    280561.19    16.959714 
  263000    1648.9943   -734.16701    299402.38    16.954562 
  263500     1426.431   -728.64919    311202.67    16.982379 
  264000    1547.5073   -737.87248    286371.03    16.832157 
  264500    1674.5695   -736.47546    295333.61    16.936593 
  265000      1404.55   -731.34413    305449.72    16.813211 
  265500     1638.478    -737.0036    296922.66    16.557978 
  266000    1457.1581   -739.50686    301096.25    16.209232 
  266500    1630.8654   -740.17467    295667.16    16.262389 
  267000    1568.1216   -733.33505    307886.56    16.373795 
  267500    1504.6609   -736.06654    303227.23    16.495677 
  268000    1641.0839    -733.0034    317092.89    16.107943 
  268500    1437.8547   -744.82801     311057.6    15.594545 
  269000    1545.7874   -764.49707    290180.44    15.416745 
  269500    1525.7985   -773.36264    272955.78    15.227858 
  270000    1574.6305   -765.65891    288735.41     15.16655 
  270500     1387.959   -762.42922    298993.38    15.131164 
  271000     1429.641   -761.59433    296463.32    15.213981 
  271500    1425.1201   -760.70217    288042.88     15.35156 
  272000    1513.5943   -769.44141    284853.15    15.261704 
  272500    1485.0495   -765.95357     285234.2    15.184057 
  273000    1602.8917   -770.91607    286049.86    15.078612 
  273500    1517.3415   -765.76012    284341.56    15.099199 
  274000    1341.5121   -758.89775    298574.24    15.054826 
  274500    1494.2733   -760.88232    304989.61    15.069677 
  275000    1597.1964   -758.38141    318861.17    15.018191 
  275500    1569.0571   -755.22814    331331.63    14.973269 
  276000    1515.8867   -753.63809    319646.62    14.989436 
  276500    1343.4028   -759.47589    306362.68    15.021629 
  277000    1512.9442   -760.12721    299436.01    15.134008 
  277500      1601.38   -771.30473    281234.62    15.173277 
  278000    1380.7857   -762.34618    285844.87    15.067534 
  278500    1407.4416   -761.14216    283951.38    15.073863 
  279000    1552.6448   -768.28053    274407.66    15.160946 
  279500    1314.7682   -773.29436    268814.15     15.24223 
  280000    1438.6154   -767.88533       283500    15.113963 
  280500    1473.5572   -769.64967    280429.39    15.073907 
  281000    1415.5091   -765.50559    285629.53    15.010851 
  281500    1422.0732   -760.94258    290169.29    15.097188 
  282000    1444.9853   -773.29822    276049.29    15.240803 
  282500     1419.499   -765.47604    292303.16    15.211604 
  283000    1470.1125   -764.67119    302346.46    14.998366 
  283500    1483.2315   -757.55618    307807.03    15.258816 
  284000    1373.1654   -743.18409    323870.51    15.353455 
  284500    1413.8587   -753.49378    312095.35    15.275265 
  285000    1525.4935   -757.51601    299191.21     15.21225 
  285500     1407.237   -767.45128     289527.4    15.156883 
  286000    1453.1069   -759.96112    290351.58    15.062684 
  286500    1441.9242   -764.56786    289962.49    15.098803 
  287000    1487.4893   -769.96333    274632.21    15.066486 
  287500    1564.9748   -767.66495    289888.77    15.037665 
  288000    1413.1902   -768.86857    286655.74    15.125526 
  288500    1549.4412   -748.09667    298433.64    15.740572 
  289000     1596.259    -738.9989    309865.59    15.999902 
  289500    1511.7789   -745.01498    284719.07     16.28281 
  290000     1477.864   -737.96262    290502.48    16.476405 
  290500    1610.0083   -733.06678    312676.19    16.283198 
  291000    1446.5033   -743.78123     289864.2    16.272929 
  291500    1453.7421   -740.33082    304969.94    16.031229 
  292000    1438.4046    -755.5672    294883.72    15.615545 
  292500    1566.0408   -754.83474    302938.74    15.376616 
  293000    1480.6177   -755.52362    315150.22    15.117046 
  293500    1476.1259   -758.55287    312523.33     15.08035 
  294000    1527.0142   -757.41568    312382.27     15.00639 
  294500    1438.7788    -758.4656    305120.52      14.9878 
  295000    1451.4327   -762.46838    306677.79    15.004647 
  295500     1508.538    -765.5034    299567.66     15.08471 
  296000    1523.9457   -765.70299    289742.96    15.083952 
  296500    1389.5942   -766.31511    287723.41    15.056406 
  297000    1384.1236   -770.90921    274622.88    15.042662 
  297500    1435.4936   -764.98187    289302.16    15.096935 
  298000    1542.8296   -763.38469    300679.24     15.09713 
  298500    1527.7794   -758.45173    304757.68    15.028368 
  299000    1348.5924   -754.77506    320599.48    14.915944 
  299500    1466.2283   -750.94521    311462.97    15.300012 
  300000    1298.5251    -752.6918    313993.47    15.376836 
  300500    1443.0194   -747.10351     307566.2    15.564685 
  301000    1594.1312   -741.88062    299504.33    15.924629 
  301500    1628.0732   -756.75003    292680.78    15.551267 
  302000    1407.3751   -766.35445    290243.02    15.074998 
  302500    1545.1558    -769.0366    290325.09    15.107274 
  303000     1432.678   -764.55226     282700.2    15.234571 
  303500    1476.7811   -754.57601    292873.51      15.4019 
  304000    1416.6288   -751.91735    305068.05    15.433887 
  304500    1551.8285   -752.53487    320148.01    14.917628 
  305000    1546.9599    -755.2488    309982.23    15.426104 
  305500     1475.532   -755.14716    297585.82    15.322348 
  306000    1532.8381   -749.07315    298608.71    15.857625 
  306500    1468.4723   -754.98399    283565.29    15.756358 
  307000    1484.4175   -750.35092    303363.39    15.400002 
  307500    1512.7512   -741.69459    314552.13    15.603709 
  308000    1404.1241   -739.94658    306572.72    15.910276 
  308500    1398.1124    -741.3271    293174.96    16.048485 
  309000      1456.89   -744.80418    292043.74    16.047554 
  309500    1580.8816   -753.84509    305356.79    15.337619 
  310000     1476.987   -745.89572    307895.53    15.598026 
  310500    1537.9594   -740.05102    297850.68    15.964378 
  311000    1475.1866   -752.06714    296613.58    15.643567 
  311500     1401.674   -739.31647    302195.46    15.949363 
  312000     1535.193   -736.54881    303418.76    16.440557 
  312500    1644.3277   -736.35292    304892.02     16.19454 
  313000    1505.7088   -740.80812    314620.29    15.656572 
  313500    1579.3724   -745.14777    300247.57    15.900663 
  314000    1468.2377   -746.76784    296715.84    15.862828 
  314500     1552.438    -747.7686    304921.06    15.564942 
  315000    1468.5759   -736.81103    323412.97    15.788456 
  315500    1397.0517   -749.39924     306819.3    15.633252 
  316000    1538.8747   -749.56557    292155.41    15.750019 
  316500    1466.5454   -738.68379    295686.78      16.2332 
  317000    1569.2315   -738.91862    294132.61     16.82753 
  317500    1515.7995   -740.00986    290997.38     16.44862 
  318000    1568.6826   -737.03967    305866.01    16.448757 
  318500    1410.0621    -736.7556    289468.31     17.02241 
  319000    1430.0705   -732.57126    300646.78    16.949892 
  319500    1459.8668   -743.88678    289845.58    16.296115 
  320000    1416.7005   -734.85004    293138.73    16.710384 
  320500    1371.1704   -734.61907    293767.56    16.761794 
  321000    1468.7909   -728.35549    305839.34    16.843198 
  321500    1564.3061    -732.0813    305620.02    16.825408 
  322000    1467.6748   -734.74136    305290.56    16.951168 
  322500     1497.508   -736.69714    304588.07    16.361046 
  323000    1580.6841   -740.90209    288514.72    16.632963 
  323500    1399.5462   -732.41944    297503.24    16.705187 
  324000    1577.5713    -738.7841    296958.46    16.332288 
  324500    1605.5365   -738.02457    299487.76    16.479371 
  325000    1596.8647   -736.55044    294759.67    16.736516 
  325500    1632.5272   -731.66909    300038.07    16.743913 
  326000     1544.147   -729.15197    313653.67    16.923395 
  326500    1519.8798   -732.73319    299682.01    16.961843 
  327000    1430.8416   -737.10698     291444.8    17.002368 
  327500    1514.2161   -730.13146       298543    16.873994 
  328000    1514.4469   -734.87012    291472.29    16.886007 
  328500    1574.3819    -734.2135    297123.42     16.95649 
  329000    1533.9301   -725.16763    320231.32    16.969864 
  329500    1477.0263   -734.84401    303283.05    16.634123 
  330000    1680.5638    -743.8602    278703.79    16.881156 
  330500    1566.3367   -739.23258    284533.16    17.074935 
  331000    1380.0607   -730.71441    305556.81    16.880493 
  331500    1496.0568   -726.68028    312786.64    16.812525 
  332000    1482.6583   -739.41045    285857.14    16.934614 
  332500    1370.4725   -738.01372    284254.98    16.961496 
  333000     1530.331   -733.73233    298236.94    16.849904 
  333500    1412.9645    -723.5959    327096.68    16.645866 
  334000    1501.6547   -732.19866    298210.79    16.979168 
  334500    1491.8559   -728.75398    302179.07    16.875181 
  335000    1525.8838   -734.70015    306281.65    16.476983 
  335500    1510.7937   -740.43735    295328.95    16.141176 
  336000    1398.4108    -748.5977    290863.32    15.820545 
  336500    1503.0593    -752.8542    305538.88    15.438764 
  337000    1480.0347   -757.88176    308388.04     15.11924 
  337500    1388.7371   -761.35035     311874.7    15.083785 
  338000    1790.3512   -757.48238    307477.31    15.203643 
  338500    1509.2361   -748.63415    328211.52    15.239153 
  339000    1563.1595   -745.99197    326080.77    14.934198 
  339500    1499.1535    -760.0949    304215.91    15.090998 
  340000    1422.1247   -765.28305    293048.25    15.084221 
  340500    1516.8552   -763.66168     287459.9    15.071601 
  341000    1592.0758   -762.17334    283454.99    15.018587 
  341500    1559.1735   -769.75289    279759.52    15.120064 
  342000    1343.6022   -768.12688    279154.59    15.186389 
  342500     1500.058   -761.11658    287789.97    15.474321 
  343000    1605.3008   -762.71238    288076.05    15.406787 
  343500    1570.0556   -760.19014    304438.02    15.273118 
  344000    1624.9812   -746.28314    327119.93    15.406952 
  344500    1434.2278     -754.133    312426.21    15.269358 
  345000    1478.9774   -757.13434    304775.98    15.324084 
  345500    1510.5504   -758.64947    300748.33    15.348907 
  346000    1424.7754   -761.22441    296349.54      15.3619 
  346500    1368.6323   -765.48171    282190.33    15.109912 
  347000    1491.8077   -764.59895    286572.95    15.161033 
  347500    1495.3117   -764.91782    292920.76    15.198035 
  348000    1395.7158   -758.68829    297476.33    15.357892 
  348500    1446.4322   -762.20954    300648.27    15.220627 
  349000    1484.5697   -759.86188    314028.69    15.013319 
  349500    1483.7523   -755.58161    312284.59    15.060579 
  350000    1511.9383   -757.77155    316837.79    15.063553 
  350500    1396.8857   -749.59641    326173.39    15.045603 
  351000    1626.2659   -762.04093    306288.76    15.063514 
  351500    1574.9665   -763.82618    296725.52     15.06519 
  352000    1514.9832   -766.79799    290734.95    15.119382 
  352500    1470.1362   -763.18979     296760.2    15.230625 
  353000    1590.5895   -763.42978       303240    15.144346 
  353500    1434.1989   -753.74019    304788.48    15.402145 
  354000    1631.3115   -764.51894    303736.04    15.101644 
  354500    1487.1585   -760.60245    309842.96     14.98826 
  355000    1663.3428   -752.89591     317198.5    15.399515 
  355500    1653.0404   -755.28292    318745.66    15.009203 
  356000    1581.7751   -757.03322    313746.75     14.98312 
  356500    1470.4286   -762.13937    303521.63    14.976168 
  357000    1645.9515   -766.15337    291828.27    15.037921 
  357500    1518.5266   -763.56572    292721.49    15.021239 
  358000     1457.446    -767.2401    284397.72    15.148769 
  358500    1469.3812   -768.35335    284660.36    15.144979 
  359000    1526.1029   -770.61196    279977.55    15.178653 
  359500    1461.3601   -761.75514    296251.69      15.1458 
  360000    1447.2266   -761.23458     297827.8    15.082972 
  360500    1534.2936   -756.88436    309402.57    15.038454 
  361000    1529.5401   -761.02726    311982.68    14.987537 
  361500    1489.5706    -755.9489    323532.62    14.982497 
  362000    1594.6765    -757.9122    314766.05    15.062616 
  362500    1514.2958   -761.87601    297051.68    15.388555 
  363000     1613.941   -761.88569    290509.48    15.329537 
  363500    1346.5915   -759.12378    279355.35    15.535727 
  364000     1434.836   -769.73444    282020.34    15.161902 
  364500     1523.814   -760.22882    302996.61    15.024038 
  365000    1502.1829   -754.69095    316244.64    14.979307 
  365500    1361.0875   -754.24479    324422.24    14.943644 
  366000    1649.9285    -758.4251    314621.59    15.024229 
  366500     1469.957   -760.17372    308922.14    15.064909 
  367000    1596.3072    -762.2241    297208.25    15.127698 
  367500    1625.2262   -771.67523    285176.25    15.116636 
  368000    1350.1297   -768.70564    274702.69    15.262683 
  368500    1337.9434    -764.6108    285897.01    15.151093 
  369000     1494.338   -766.87068    290039.59    15.037186 
  369500    1542.1284   -765.80151    278409.41    14.955522 
  370000    1459.5437   -760.78801    293075.24    15.374785 
  370500    1572.9835   -763.26218    294763.98    15.158246 
  371000    1418.2617   -760.81226    296964.89    15.118266 
  371500    1495.3375   -749.75496    308382.31    15.517405 
  372000    1568.6237   -754.07944    321400.48    15.262214 
  372500    1584.3834   -752.08863    309871.41     15.43162 
  373000     1445.045   -747.47244    302640.35    15.638507 
  373500    1602.0789   -752.46537    279825.99    15.984783 
  374000    1393.9069   -754.26567    287247.81    15.680852 
  374500    1532.7905   -742.22644    305697.47    15.872271 
  375000    1485.5131   -731.61836    309245.89    16.282555 
  375500    1549.7165   -733.48976    298897.76     17.02086 
  376000    1436.1648    -728.6724    310764.87    16.486575 
  376500    1469.7965   -732.84242    294212.16    16.776989 
  377000    1400.3538   -737.07977    296754.89    16.523406 
  377500    1505.4766   -733.15814    307760.18    16.431497 
  378000    1470.0178   -742.38474    288513.39    16.381412 
  378500    1567.3127   -728.63759    318407.28     16.39286 
  379000    1463.6533   -733.32241    304646.87    16.470564 
  379500    1468.8774   -737.50467    283832.84    16.499298 
  380000    1384.6466   -732.57711    320951.21    15.966061 
  380500    1462.4812   -747.93638    293268.78    15.934323 
  381000    1550.4485   -754.50931    291128.74     15.59377 
  381500    1635.8212   -742.65138    304127.35    15.981119 
  382000    1564.6823    -737.5634    289219.79    16.796334 
  382500    1668.6184   -724.23552    324334.48    16.824849 
  383000    1521.2697   -732.35562    294832.66    16.852967 
  383500     1611.829   -727.72646    311988.36    16.711861 
  384000    1621.9183   -734.33871     293486.3    16.873061 
  384500    1459.9138   -734.82131    304771.91    16.290475 
  385000    1471.6737   -734.09858    305427.29    16.429748 
  385500    1510.7219   -727.43245    300591.95    16.812465 
  386000     1616.662   -734.96836    293504.83    16.941879 
  386500    1456.5483   -724.45503    327953.88    16.765003 
  387000    1543.6909   -727.56544    316974.35    16.808784 
  387500    1469.5531   -735.78251    291350.56    16.834526 
  388000    1388.4701   -735.52126     286537.9    16.791368 
  388500    1522.2236   -738.56678    295537.17    16.449335 
  389000    1373.2829   -733.31817    306924.03    16.341816 
  389500     1358.147   -741.29788    300806.56    16.002326 
  390000    1417.3467   -749.81763    297592.61    15.640984 
  390500    1402.6582   -764.11282    291412.38    15.147551 
  391000    1494.3975   -763.51289    285679.18    15.301316 
  391500    1379.4776   -747.22399    301892.86    15.675947 
  392000    1519.0745   -741.99261    316327.04    15.545392 
  392500    1649.5501   -742.20635    298742.69    15.867671 
  393000    1440.5185   -747.23423    283579.38    16.156988 
  393500    1412.1907   -730.28578    313911.05    16.373061 
  394000    1581.2227   -741.16594    280934.28    16.506856 
  394500    1515.1305   -740.93112    299725.86    16.425206 
  395000    1530.2523   -728.92926    316709.28    16.585856 
  395500    1607.1601   -745.25573    288173.89    16.118623 
  396000    1553.9721   -746.92133    292292.58    15.834065 
  396500    1489.8132   -741.45224    297661.12    16.290668 
  397000    1547.5826   -736.12428    294170.22    16.726614 
  397500    1534.5382   -733.44134    301682.06     16.70056 
  398000    1414.2357   -729.36978     304795.6    16.823135 
  398500    1502.3422   -736.18897    290367.36    16.975936 
  399000    1406.3439   -731.88651    301385.33    16.906753 
  399500    1504.9817   -737.79795     283803.3    17.019416 
  400000    1513.8333   -731.01976    305282.86    16.802636 
  400500    1596.8577   -732.43035    311488.37    16.560485 
  401000    1414.5539   -739.65106    294953.58    16.294853 
  401500    1372.8498   -743.97851    294987.01    16.069051 
  402000     1525.511   -746.13291    309791.55    15.713014 
  402500    1527.8257   -738.63738    315200.44    15.784321 
  403000    1468.2333   -755.93988    302152.57    15.340357 
  403500    1532.2592   -755.52794    287986.33    15.641228 
  404000    1412.9093   -747.33404    290197.58    15.866956 
  404500    1498.7765   -745.22204    294568.28    16.058044 
  405000    1426.4997   -723.23647    323497.48    16.681744 
  405500    1519.3283   -730.47917    304415.95    16.775524 
  406000    1404.5171   -736.16947    284387.86    16.943805 
  406500    1453.0431   -738.09554    287449.55    16.863316 
  407000    1503.6612   -726.59592    314698.15    16.827777 
  407500    1465.1733   -739.85095    289704.77     16.92455 
  408000    1560.7669   -734.92708    301683.44    16.425954 
  408500     1531.965   -726.57926    327791.68    16.225399 
  409000    1387.6822   -731.81136    305159.07    16.472043 
  409500     1481.953   -735.55827    310171.69    15.902224 
  410000    1504.2932   -757.52714    300789.93    15.418996 
  410500    1465.2238   -761.18232    304058.87    15.251236 
  411000    1620.2243   -761.47417    297810.28    15.232074 
  411500    1499.5842   -768.24137    284583.73    15.187967 
  412000    1527.9303   -763.89276    277536.35    15.525871 
  412500    1392.5974   -763.68655    290711.31     15.38062 
  413000    1464.6219   -760.33046    293245.31    15.320326 
  413500    1506.5504   -755.16933    292561.19    15.623718 
  414000    1339.2196   -757.02711    313997.84    15.154949 
  414500    1625.7028   -756.99099    307356.21    15.114953 
  415000    1466.4095   -759.61593    291404.39    15.069147 
  415500    1520.9816   -763.86198    285732.89    15.417491 
  416000    1525.2771   -766.92769    281319.31    15.328736 
  416500    1501.7887   -767.45465    280401.42    15.391322 
  417000    1461.0431   -762.54031    293431.86    15.070696 
  417500    1695.5946   -761.64553    303117.57    15.018627 
  418000     1346.251   -753.44959     318371.5    15.027817 
  418500    1560.1746   -750.37333    329433.99    15.173199 
  419000    1575.2325   -757.06444    309699.21    15.179878 
  419500    1472.8506   -759.26615    307007.24     14.97191 
  420000    1466.8965    -765.9171    287919.59     15.07644 
  420500    1504.4218   -764.21343    282225.39    15.299405 
  421000    1474.6434   -767.11801    292759.65    15.063409 
  421500    1388.3057   -762.54759    299426.74    15.035636 
  422000    1436.6095   -754.89772    303710.64    15.344114 
  422500    1460.0491   -753.80213    317709.99    15.163167 
  423000     1495.685   -749.00612    323128.91    15.336723 
  423500     1735.474   -755.57814    310878.21     15.33845 
  424000    1528.4697   -758.04158    305827.11    15.216913 
  424500    1429.0508   -750.01644    298163.89    15.656114 
  425000    1370.1172   -768.87064    279418.88    15.203117 
  425500    1497.5323   -770.85409    282438.36    15.177443 
  426000    1463.7212   -765.99998    286989.83    15.140247 
  426500    1463.2897   -758.95796    302557.33    15.162149 
  427000    1513.9864   -760.54167    312083.58    15.006808 
  427500    1512.0508   -760.98666    310313.31    15.002592 
  428000    1576.0551   -756.04141    313985.33    15.147495 
  428500    1476.5682   -745.45473     305212.1    15.667801 
  429000    1462.2692   -744.46874    289917.64    16.168766 
  429500    1467.9865   -736.92379    291694.06    16.850547 
  430000    1513.7763   -731.42812    300117.81    16.870585 
  430500    1505.0579   -727.24221    308986.66    16.754904 
  431000     1498.901   -729.54367    312578.09    16.756535 
  431500    1543.6561   -746.43489    285297.08    16.237214 
  432000    1462.2175   -749.87135    291029.76    15.712697 
  432500    1471.0955   -757.29036    300188.75    15.210051 
  433000    1591.8128   -739.11703    306783.88     15.88904 
  433500    1510.6574   -743.38211    306055.95    15.806669 
  434000    1485.6868   -753.83185    290519.78    15.745505 
  434500    1445.6806   -758.35512    265675.97    15.932125 
  435000    1440.7211   -754.02181    284861.38    15.848479 
  435500    1514.1016   -739.06257     315478.6    15.772005 
  436000     1469.095   -737.34999     319911.1    15.690189 
  436500    1561.4826   -749.08906    289875.27    15.909381 
  437000    1379.4393   -752.55267    282072.77    15.877718 
  437500    1433.5252    -750.0171    298946.32      15.9353 
  438000      1445.74   -733.07532     323006.7    15.931177 
  438500      1511.28    -732.8427    312410.44    16.122489 
  439000    1435.9225   -740.16439    281561.19    16.516405 
  439500    1638.5629   -735.09158    301320.37    16.534311 
  440000    1581.4663    -729.0721     316331.1    16.466467 
  440500    1333.1246   -736.78315    283240.95    16.813605 
  441000    1708.7681   -737.53667    296036.23     16.82027 
  441500    1643.8161   -725.51133    320231.81    16.752488 
  442000    1479.6453   -729.35088    298710.52    16.899664 
  442500    1474.3271   -735.48969    297569.75    16.832965 
  443000    1562.4361   -732.43546    306474.21    16.892867 
  443500      1515.19   -734.89964    309676.93    16.116288 
  444000    1380.0926   -750.37406    273518.89    16.222223 
  444500    1490.5004   -741.48514    290092.92     16.56582 
  445000    1444.6623   -736.11807    304748.68    16.218886 
  445500    1423.3779   -737.20455    288711.22     16.67601 
  446000    1552.4408   -739.86976    300542.88    16.169551 
  446500    1516.8085     -741.187    316682.33    15.541882 
  447000    1569.9071    -753.7093    299977.19    15.480214 
  447500    1433.2097   -763.89552    292769.62    15.187481 
  448000     1453.472   -760.07201    289209.24    15.441648 
  448500    1404.0774    -760.8877     294215.1    15.280829 
  449000     1471.614     -765.189    277853.72     15.46431 
  449500    1466.4465   -761.55418     284755.4     15.45185 
  450000    1516.0951   -761.78275    292765.78    15.310106 
  450500    1475.7696   -762.87443    303555.19    15.191365 
  451000    1485.3937   -751.26483    315979.99    15.134115 
  451500    1556.5983   -751.56835    301205.03    15.476178 
  452000    1560.4342   -760.99191    304105.19    15.227308 
  452500    1482.4179   -748.67982    307404.11    15.516988 
  453000    1486.5866   -761.00654    306391.93    14.977824 
  453500    1512.9423   -754.26377    302611.51    15.274747 
  454000    1579.3517   -766.96391    291485.78    15.186589 
  454500    1528.6432   -765.05346    283600.28    15.371013 
  455000     1406.909   -762.36338    298335.77    15.166911 
  455500    1472.6142   -762.86257     302378.9    15.150031 
  456000    1497.1406   -758.92392    303307.81    15.251014 
  456500    1429.8949   -769.56442    285421.95    15.104131 
  457000    1463.7885   -778.71486     264786.8    15.252512 
  457500    1645.1208   -764.34568    288332.54    15.184572 
  458000    1432.8171   -768.52497    287555.81    15.113629 
  458500    1508.5919   -767.77299    289929.98    15.067226 
  459000    1513.4083   -752.20571    305068.66    15.524437 
  459500    1428.3667   -762.34156     301339.9    15.118171 
  460000     1458.419   -760.08422    303255.18    15.040071 
  460500    1592.8339   -748.14893    308833.82    15.495059 
  461000    1479.7789   -747.58567    294636.14    15.959046 
  461500    1484.2467   -745.88299    291723.97    15.996766 
  462000    1473.7636   -748.48979    308073.88     15.45785 
  462500     1420.104   -744.23836    325867.69    15.407641 
  463000    1528.6224   -755.98938     297836.4    15.398025 
  463500    1345.5928   -762.97058    287259.33     15.32026 
  464000    1491.2533   -765.15329    279842.08    15.033541 
  464500     1476.073   -754.34675    287387.34    15.356242 
  465000     1400.277    -759.3533    297019.73    15.375422 
  465500    1481.9334   -757.30382    302349.91    15.201159 
  466000    1563.1553   -759.73366    309360.72    15.015521 
  466500    1444.2123   -758.69481     313185.9    15.001759 
  467000    1620.1488    -757.8327    310158.04     15.10792 
  467500    1534.4561   -763.31598    295881.61    15.204387 
  468000    1522.2664   -765.02019    290851.11    15.134858 
  468500    1497.5567   -772.24463    284638.76     15.15142 
  469000    1495.6062   -760.29281    286828.59    15.371337 
  469500    1616.9911   -767.34043    285294.84    15.056445 
  470000     1598.311   -757.66891    296269.31     15.32678 
  470500    1444.2502   -759.42989    302312.77    15.316057 
  471000    1512.3612   -760.03935    314141.02    14.891142 
  471500    1534.3354   -757.88035    300511.42    15.364919 
  472000     1622.307    -763.6883    301091.58    15.131316 
  472500    1475.3987   -747.54798    306587.67    15.601863 
  473000    1451.4468   -745.74961     296514.7    15.832652 
  473500    1467.2194   -750.52179    279580.22    16.170909 
  474000    1711.7623   -742.44174    296168.29    16.221019 
  474500    1492.8093   -737.66044    304151.17    16.190955 
  475000    1461.4755   -744.28214     284655.6    16.326426 
  475500    1449.9168   -743.88818    294363.62    16.049548 
  476000    1423.7422   -753.07334    297251.66    15.582736 
  476500    1457.7981   -765.52321    292501.15    15.024407 
  477000    1385.6386   -765.40689     297815.4    15.064419 
  477500    1472.5038   -759.93196    304969.03     15.14006 
  478000    1449.9294    -753.9413     319761.1    15.032683 
  478500    1444.0367   -749.76391    316151.54    15.423258 
  479000    1403.2824   -759.59131    305449.83    15.003115 
  479500    1550.1048   -763.62952    299964.43    15.074462 
  480000    1551.4461   -761.97959    307104.28    15.094236 
  480500     1424.759   -761.53077    297972.58      15.1197 
  481000    1452.7039   -766.50072    285613.47    15.179677 
  481500    1511.6765   -771.90035     282665.9    15.142485 
  482000     1377.208   -771.35476    274723.18    15.225962 
  482500    1544.2988   -754.25513    299131.65    15.459791 
  483000    1566.6126   -760.51974    297606.63    15.224379 
  483500    1529.7684   -761.66655    302284.68    15.089818 
  484000    1446.7385   -758.86004    300840.04    15.044754 
  484500    1488.8228   -758.68932    288128.63    15.568402 
  485000    1407.4679   -757.34403    294146.71    15.428758 
  485500    1392.4173   -753.61596    312431.27    15.152711 
  486000    1501.1783   -755.14544    307026.69    15.188082 
  486500    1638.9772   -760.20262    302375.04    15.061394 
  487000    1514.3259   -747.49977    318606.95    15.373958 
  487500    1464.5286   -757.40546     315370.5    15.025021 
  488000    1483.3344   -753.19915    307755.92    15.397372 
  488500    1513.9886   -762.16746    308157.58    14.972831 
  489000    1478.9278   -758.19685    295015.13    15.443069 
  489500    1538.5038   -763.98022     288856.9    15.332233 
  490000    1494.7862   -765.11212    284880.87    15.288855 
  490500    1366.3433   -756.71232    280849.06     15.64748 
  491000     1556.929   -749.86835    289243.11     15.88507 
  491500    1536.0945   -752.55019    311282.93    15.390152 
  492000    1602.0431   -751.18111    302688.42    15.388598 
  492500    1390.8606   -750.34569     307014.8    15.455966 
  493000    1472.0207   -768.47837    291584.99    15.093945 
  493500    1418.4365    -762.8695    291353.98    15.052677 
  494000    1446.4857   -772.01252    270807.44    15.208557 
  494500    1433.1232    -768.6986    278769.19    15.221437 
  495000    1588.9729    -763.5263    292229.52    15.187583 
  495500    1517.9523   -750.16078    315972.78    15.311633 
  496000    1499.4971   -751.05893    323680.18       15.185 
  496500    1541.1102   -751.74689    317072.81    14.906048 
  497000    1542.4536   -756.67573    303928.65    15.289707 
  497500    1568.5208   -764.88043    295353.71    14.948373 
  498000    1488.3325   -755.27674    290504.72    15.581522 
  498500     1508.195   -740.63187    304902.58    16.098814 
  499000    1533.8822   -727.68589    315038.96    16.662584 
  499500    1432.6578   -737.79477    294473.13    16.665939 
  500000    1452.7062   -737.70945    298249.14    16.280009 
  500500    1634.5596   -740.68601    300504.29    16.076888 
  501000    1561.9817    -738.0604    319477.87      15.7622 
  501500    1350.8039   -745.46117    297414.67    15.837582 
  502000    1512.0074   -752.91186     281321.8    15.855369 
  502500    1339.4268   -766.96306    277185.09    15.301267 
  503000      1616.31   -764.33828    291329.81    15.169066 
  503500    1496.5419    -760.4864    294497.17    15.375447 
  504000    1519.3922   -764.16542    305206.07    15.025938 
  504500    1480.7823   -757.78314     316238.7    15.008517 
  505000    1533.5507   -756.68708    309191.29     15.16476 
  505500    1372.4987   -757.18621    295830.02    15.319755 
  506000    1490.0337   -763.76178    295378.96    15.023883 
  506500    1619.7142   -764.31778    290913.13    15.337875 
  507000    1384.9813   -767.49906    280594.41    15.338889 
  507500    1514.6338   -761.31899    299452.53    15.114589 
  508000    1352.0963   -758.54366    301892.31    15.083588 
  508500    1509.2584   -761.26488    303534.58    15.101592 
  509000    1474.2636    -746.2071    318052.12    15.459181 
  509500    1595.0704     -760.657    310303.24    15.088203 
  510000    1498.4581   -761.61947    299405.36    14.996318 
  510500    1416.4502   -764.01206    290593.42    15.186567 
  511000    1451.8139   -769.58504    286153.37    15.296044 
  511500     1456.203   -769.62956    291233.93    15.182419 
  512000    1407.0682   -758.10913    299452.61     15.25608 
  512500    1488.5121   -750.21775    316180.86    15.256169 
  513000    1693.3935   -756.23537    317697.76    15.000625 
  513500    1523.0212   -754.05067    317483.49    15.008324 
  514000    1521.7789    -758.1272    311371.99    15.213741 
  514500    1412.7322   -760.68355    302810.59    15.086896 
  515000    1525.4466   -761.23139    297482.31    15.281499 
  515500    1670.0634   -760.33509    301544.41    15.152782 
  516000    1466.8517   -756.58794    296566.88    15.459435 
  516500    1527.9469   -763.78072    293550.72    15.224874 
  517000    1509.7179   -758.63203    297259.49    15.302152 
  517500    1416.2122   -753.01766     299332.2    15.498219 
  518000    1440.7255    -762.0678    297591.35      15.1169 
  518500    1305.2743   -764.95647    294392.89    15.063495 
  519000    1467.4855   -762.05423    301567.28    14.997778 
  519500    1468.3568   -751.33043    315477.11     15.30695 
  520000    1634.3839   -748.63367    322174.57    15.448648 
  520500    1528.3113   -752.48355    311085.97    15.203989 
  521000    1477.1071   -762.78975    298113.29    15.106223 
  521500    1460.1357   -759.81833    287836.59    15.409431 
  522000    1320.9745   -760.93455     281607.7    15.442319 
  522500    1441.0803   -764.70252    281116.19    15.366601 
  523000    1389.8667   -762.69973    297609.02     15.27834 
  523500    1688.5439   -760.96818    305765.95    15.062063 
  524000    1518.7647   -754.48392    318248.16    15.068855 
  524500    1614.8865   -746.78088    312379.38    15.488447 
  525000    1403.1026   -759.62715    301256.07    15.245004 
  525500    1688.3609   -758.74091    290469.04    15.469944 
  526000     1439.553   -769.75394    281358.55      15.0397 
  526500    1405.2561   -765.69205    289353.21    15.103621 
  527000    1524.3672    -763.4831    291262.05    15.050565 
  527500    1449.2247   -767.44546    268206.43    15.135164 
  528000    1567.2348   -767.55026     286509.2    15.064248 
  528500    1427.2192   -759.89146    303898.28     15.08688 
  529000    1453.4322   -754.25795     325046.1    15.020559 
  529500    1502.3124   -751.21205    324960.37    15.052405 
  530000    1474.8884   -755.43883    313686.85    15.086824 
  530500    1432.4657   -760.43582    298753.74     15.09173 
  531000    1435.2459     -756.245    292631.23    15.472692 
  531500    1438.0741   -773.71634    265703.21    15.174863 
  532000    1591.5959   -763.84073    292954.13    15.089297 
  532500    1424.2978   -756.53857    299470.72    15.335641 
  533000    1553.8942   -755.55116    317372.29    15.066424 
  533500    1551.5049   -756.75617       312793    15.098382 
  534000    1455.7612   -755.95235    309276.87    15.218414 
  534500    1446.0429   -765.20642    296174.54    15.185112 
  535000    1511.0032   -759.99426    295830.73    15.350691 
  535500    1514.5303    -759.9565    296580.03    15.365991 
  536000    1529.0693   -765.06072    299275.99     15.12272 
  536500     1431.337   -760.03069    305157.34    15.333159 
  537000    1527.8685   -755.37033    310559.19    15.283361 
  537500     1529.687   -748.74076    289737.65    15.829613 
  538000    1442.6048   -747.85405    282011.07    16.017741 
  538500    1551.1565   -732.95767    308684.45    16.292949 
  539000    1504.7704   -732.29737    303242.33    16.668289 
  539500    1550.6055    -731.9907    294235.52    16.852893 
  540000    1499.3177    -742.0879    281608.01    16.883847 
  540500    1566.2716   -724.91379    315439.64    16.717294 
  541000    1523.4807   -726.72457    314080.55    16.932768 
  541500     1597.797   -730.66649     304212.5    16.892468 
  542000    1406.5137   -742.07897    285239.54    16.517977 
  542500    1367.9803   -732.35672    306645.26    16.552583 
  543000    1557.0265   -728.24847    316165.48    16.527726 
  543500    1596.5198   -737.64296    295458.37    16.772704 
  544000    1490.4356   -737.97423    285201.67    16.955506 
  544500    1511.3859   -738.59684    306839.36    16.179018 
  545000     1473.915   -737.41141    310537.59    16.145492 
  545500    1564.9445   -739.94963    303466.95     16.36427 
  546000     1539.663   -735.59158    295470.24    16.888979 
  546500    1461.1013   -735.25942    294302.95    16.568276 
  547000    1424.4772   -735.13789    305041.54    16.343815 
  547500    1601.6358   -741.59393    306926.63    15.872626 
  548000    1632.9004   -753.66964    284812.28    15.842847 
  548500    1481.6117   -748.26562    279433.38    16.206125 
  549000    1372.5909   -734.90545    297998.63    16.324136 
  549500    1542.2286   -730.20243    303428.44    16.617909 
  550000    1592.5771   -727.50332    312193.57    16.619745 
  550500    1445.1023   -735.25783    297801.05    16.544857 
  551000    1465.8928   -739.69827    290759.71    16.733399 
  551500    1492.2293   -728.78124    304944.83    16.977439 
  552000     1454.918   -729.25089    311642.85    16.380331 
  552500    1417.9603   -733.72026    297327.41    16.701226 
  553000    1517.0379   -737.95678    296151.89    16.704212 
  553500    1399.0558   -736.88407    292961.37    16.698853 
  554000    1403.9153   -727.38115    307632.65    16.687414 
  554500    1491.9281   -728.13093    316793.95    16.501942 
  555000    1473.4105   -741.31906    281852.07    16.388563 
  555500    1524.3921   -735.18226    303010.44    16.691852 
  556000    1451.1608   -725.63847    313133.81    16.794469 
  556500    1494.8605   -740.64435    287509.44    16.419867 
  557000    1696.8058   -739.21764    291871.22    16.692346 
  557500    1532.5538    -739.1426    298185.49    16.246031 
  558000    1593.1719   -741.80133    301239.69    15.926392 
  558500    1592.7839   -738.29313    303921.51    16.256049 
  559000    1404.4901   -732.94951    297046.14    16.645855 
  559500     1532.239   -736.59269    287915.19    17.000144 
  560000    1495.7395   -732.47381     299497.9    17.039536 
  560500    1525.0116   -729.22589    319213.05    17.022769 
  561000     1372.125   -732.59095     299533.3    16.974406 
  561500     1440.096   -738.58317     286338.4    16.797834 
  562000    1487.1488   -731.38012    292868.92     16.96292 
  562500    1527.5769   -727.80824    310459.02    16.879874 
  563000    1484.0611   -737.37041    293326.57    16.652719 
  563500    1363.3288   -738.12401    304874.91    16.041146 
  564000    1555.6569   -753.82502    298190.02    15.408265 
  564500    1557.9777   -762.41256    286677.35    15.366486 
  565000    1349.9898   -764.88559    284262.65    14.940865 
  565500     1472.656   -764.97816    289924.73    15.312095 
  566000    1572.0269   -764.23044    285397.04    15.359537 
  566500    1381.4276   -765.95195    271939.37    15.059643 
  567000    1535.9581   -762.12947    290758.62    15.309059 
  567500    1496.1321    -761.3127    295860.81    15.251026 
  568000    1442.2792   -753.07361    315682.58    15.197399 
  568500    1639.0959   -752.10745    319851.77    15.196027 
  569000    1509.3807   -753.63608    314838.87    15.116407 
  569500    1507.9239   -758.82467    315751.34    15.038303 
  570000    1607.1171   -757.44573     314980.6    15.064739 
  570500    1607.9126   -765.06118    299712.35    15.078423 
  571000    1375.9294   -764.03885    294850.44    15.109059 
  571500     1344.609   -769.30058    281420.86    15.126919 
  572000    1525.3117   -767.84257    281139.42    15.454355 
  572500    1456.0265   -765.14557       282084    14.991254 
  573000    1551.3993   -760.35163    300960.69    15.174113 
  573500    1496.9814   -755.04542    316729.13    15.161954 
  574000    1539.1834   -750.27308    311288.72    15.182761 
  574500    1532.6951   -764.85103    304831.38    15.104912 
  575000    1536.3593   -761.59397    305405.49    15.082993 
  575500    1490.3998   -769.98549    284711.72    15.037621 
  576000    1419.5727    -765.3096    287910.15    15.185548 
  576500    1466.5028    -763.2347    294126.07    15.162696 
  577000    1481.0485   -748.90223    303295.85    15.638935 
  577500    1502.8831   -739.09932    307768.93    15.898888 
  578000    1601.6425   -752.85388    290102.94    15.609193 
  578500    1538.1687   -750.07633    284647.02    16.024331 
  579000     1556.019   -734.20505    308033.29    16.358151 
  579500    1582.1942   -734.73697    303219.31     16.52492 
  580000    1565.5087   -747.49607    279892.29    16.434228 
  580500    1506.3528   -734.30602    308346.95    16.387121 
  581000    1439.7261   -727.40888    308652.19    16.590493 
  581500    1463.6372   -741.64884    289207.73    16.484058 
  582000    1550.4618   -739.25438    297856.74    16.360352 
  582500    1455.1677   -730.76065    312354.85    16.272485 
  583000    1366.1225   -742.16326    286727.52    16.298031 
  583500    1378.4494   -735.74423    296075.43     16.67034 
  584000    1404.6795    -730.0098     309619.9    16.690446 
  584500    1412.6762   -734.73622    293454.24    16.955087 
  585000    1388.5436   -729.59601    325972.76    16.196891 
  585500    1561.3964   -736.25531     313853.9    15.973872 
  586000    1497.2117    -737.3756    298597.73    16.599671 
  586500    1557.1064   -736.98507    282795.03     16.93243 
  587000    1450.4924   -726.55927    307977.67     16.82832 
  587500    1406.6832    -738.6422    295549.98    16.343069 
  588000    1536.9973   -748.20853    287223.12    16.065347 
  588500    1569.9079   -748.78415     297107.4    15.642155 
  589000     1529.569   -762.08624    301382.54    15.170666 
  589500    1617.5716   -759.41143    300608.93    15.130694 
  590000    1497.1114   -762.83459    299116.87     15.17397 
  590500    1559.2714   -754.96874     298115.6    15.502832 
  591000    1477.7245    -743.7734    290436.11    16.193438 
  591500    1559.1256   -732.87228    299950.19    16.376053 
  592000    1563.3215   -746.18014    304931.47    15.761553 
  592500    1532.5605   -749.46852    292913.19    15.960319 
  593000    1506.7822   -737.19962    296453.92    16.607726 
  593500    1426.2266   -730.62742    300801.08    16.830978 
  594000    1519.5183   -733.94222    292440.64    16.952243 
  594500    1460.5925   -725.95564    320204.65    16.702448 
  595000    1538.8237   -738.98577     291810.9    16.719964 
  595500    1523.7468   -736.09411    293952.33    16.743827 
  596000     1433.461   -735.45358    296114.62    16.612034 
  596500    1456.0312   -731.86274    311094.68    16.458135 
  597000    1462.3553   -735.55022    296021.08    16.956281 
  597500    1552.8923   -730.78651    317591.12     16.51875 
  598000    1490.4066   -740.07494    294838.64    16.186553 
  598500    1469.5798   -740.20387    292139.31    16.231108 
  599000    1589.2639   -731.46508    307599.53    16.727448 
  599500    1590.1213   -728.28199    311861.03    16.817667 
  600000    1410.1378   -727.72441    318030.15    16.415629 
  600500    1533.1516   -734.31644    292731.95    16.734944 
  601000    1490.1496   -735.19404    292347.36    16.765196 
  601500    1555.2112   -734.50019    294003.34    16.823782 
  602000    1466.4055   -732.95461    302915.56    16.698529 
  602500    1499.9705   -733.01144    306054.58    16.425253 
  603000     1421.055   -747.57262    274370.09    16.351926 
  603500    1450.9058   -730.87905    305664.92    16.805418 
  604000    1543.5373    -730.7094    297494.31    16.877254 
  604500      1514.63   -732.27461     300052.3    16.671835 
  605000    1651.8243   -730.28003    320052.83    16.429211 
  605500     1535.532   -733.73733    304702.66    16.483578 
  606000     1398.951   -737.72027    294096.69    16.614579 
  606500    1386.8021   -738.19106    287786.47    16.543391 
  607000     1608.363   -727.68682    313905.11    16.456204 
  607500    1567.9986   -734.43183    295853.36    16.583712 
  608000    1329.1839   -742.13617    289713.54    16.334166 
  608500    1484.5107   -748.72664    299437.22    15.569034 
  609000    1434.4031   -744.28931    295029.89    15.766962 
  609500    1463.7306   -734.02609    305357.93    16.530013 
  610000    1499.9357   -729.39673    309662.41    16.378503 
  610500    1475.4087   -749.89696    283213.32     16.05052 
  611000    1408.4554    -748.7152    302019.82    15.569119 
  611500     1622.169   -750.48175    324486.84    15.092733 
  612000    1610.3727   -750.97033    324494.29    15.215486 
  612500    1506.2876   -755.98189    308941.28    15.065802 
  613000    1489.3284   -758.55089    306079.92    15.041195 
  613500     1549.193   -756.26476    311307.43    15.134394 
  614000    1524.2637   -760.79902    304698.68    15.076991 
  614500    1526.2385   -760.00938    290746.94    15.448101 
  615000    1621.3781    -757.3351    285596.17    15.645733 
  615500     1456.997    -768.9158    285549.64    15.074936 
  616000    1548.2571   -767.28781    287636.42    15.090833 
  616500    1563.8604   -760.78963    300166.34     15.37273 
  617000    1460.0444   -757.42105    310638.75    15.000218 
  617500    1517.7439   -758.63157    302819.56    15.222601 
[...]
 4848500    1435.1189   -763.09421    287130.54    14.973791 
 4849000    1643.3812    -755.8531    289054.46    15.636069 
 4849500    1453.8812   -749.11798    303405.12    15.583913 
 4850000    1429.2241   -750.44599    324327.58    15.057182 
 4850500    1537.2872   -756.08014    318994.87    15.037323 
 4851000    1695.3851   -759.37877    311809.36    14.995549 
 4851500    1431.4668   -760.64585    302753.23    15.203841 
 4852000    1616.8136    -765.6996    282885.03    14.996177 
 4852500    1480.1226    -769.7029    281360.05    15.199158 
 4853000    1531.6771   -760.92481    293501.57    15.296772 
 4853500    1383.0536   -760.18863    291593.78    15.322878 
 4854000    1493.3084   -764.44917    295383.72    15.201521 
 4854500    1625.2419   -756.24637    314754.62    14.979865 
 4855000    1351.5115   -754.89098    310667.21    15.346682 
 4855500     1412.263    -762.6403    298550.77    15.117705 
 4856000    1486.0545   -755.07093    289680.33    15.608144 
 4856500    1492.3804   -747.79077    299211.04    15.657794 
 4857000     1564.473   -746.00153    305650.21     15.81586 
 4857500    1418.8872    -736.7518    301371.98    16.392271 
 4858000    1373.1668   -735.93795    298600.64    16.453329 
 4858500    1507.6994   -733.61857       302310    16.694672 
 4859000    1520.6144   -736.69789    299554.03    16.555501 
 4859500    1542.0327   -733.57832    302028.04    16.707661 
 4860000    1397.7543   -737.74917    288294.04    16.787791 
 4860500    1480.6516   -740.70208    282007.53    16.975374 
 4861000    1460.9462   -736.52853    290248.26    16.785609 
 4861500    1677.7803   -734.46088    300822.67    16.758454 
 4862000    1569.4311   -733.27118    309061.61     16.28182 
 4862500    1556.1503   -743.74734    314457.86    15.533391 
 4863000    1361.7305   -747.24089    310686.68    15.527837 
 4863500    1485.1019   -766.22725    292777.12     15.03033 
 4864000     1487.266   -763.96884     292374.4    15.268057 
 4864500    1478.7367   -765.39023    281091.12    15.242644 
 4865000    1479.9683   -773.83182    269347.17    15.224356 
 4865500    1496.6321   -760.89475    300014.24    15.096781 
 4866000    1552.3379   -753.66734    309984.61    15.149581 
 4866500     1541.829   -742.59308    341126.22    15.290312 
 4867000    1474.3405   -753.36829    317895.94    15.035282 
 4867500     1392.871    -760.7937    300936.86    15.158252 
 4868000    1509.0465   -761.57447    289448.99    15.386648 
 4868500     1510.557   -766.64572    280092.97    15.154047 
 4869000    1549.4029   -759.59894    292002.42    15.369822 
 4869500     1523.755   -758.82201    296011.02    15.399631 
 4870000    1503.8629   -757.60081    309888.79    15.108137 
 4870500    1461.7874   -754.70466    313957.77    15.036036 
 4871000    1524.0994   -755.66174    315839.71     15.12973 
 4871500    1590.6289   -761.39871    307095.49    15.019568 
 4872000    1494.4994   -769.13677    289854.95    15.221449 
 4872500    1568.2814   -764.77453    296290.92    15.169366 
 4873000    1412.7415   -759.11094    292951.29    15.316831 
 4873500    1348.0426   -762.58409    293443.64    15.285146 
 4874000    1369.9697   -758.79895    303225.75    15.183182 
 4874500    1617.4892   -749.76539    335080.12    14.921016 
 4875000    1581.5698    -758.0741    317002.17    14.989898 
 4875500    1414.2968   -756.28899    306505.67    15.106505 
 4876000    1424.3757   -766.88921    290629.65    15.070486 
 4876500    1477.5896   -771.59338    271914.78    15.135973 
 4877000    1641.0208   -772.57029    279828.66    15.193196 
 4877500     1549.304   -759.76135    298457.31    15.320914 
 4878000    1430.2646   -756.70468    319323.65    15.001022 
 4878500    1438.7696   -741.28804    316059.77    15.687449 
 4879000    1653.4472    -752.6871    301302.77    15.608319 
 4879500    1439.9693    -767.9328    293946.74    15.034303 
 4880000    1522.1665    -764.1655    294679.89    15.123128 
 4880500    1416.2985   -761.46128     302075.3    15.109932 
 4881000     1535.555   -755.32248    312675.53    15.064256 
 4881500    1560.7349   -754.29511    314510.19    15.259555 
 4882000    1477.8035    -760.2275    307545.07    15.022016 
 4882500    1341.5241   -748.87781    319613.41    15.134632 
 4883000    1573.7514   -744.54059    308874.92    15.503674 
 4883500    1449.9456   -749.85293    287960.14    15.727994 
 4884000    1531.8828   -753.81445    285434.75    15.864342 
 4884500     1529.488   -748.22289    302984.07    15.485578 
 4885000    1593.4395   -754.47572    307485.43    15.315277 
 4885500    1422.0356   -761.27329    291183.92    15.362758 
 4886000    1518.1513   -760.82605    300723.96    15.162045 
 4886500     1616.815   -758.68841    315086.24    14.977075 
 4887000    1612.0423   -758.13998    317642.92    15.020603 
 4887500    1527.8344   -756.17962    316148.04    15.071561 
 4888000    1404.3715   -756.52816    308448.43    15.061705 
 4888500    1427.3956   -759.79377    299260.41     15.03803 
 4889000    1710.0329   -760.19752    293855.86    15.250663 
 4889500    1544.7122    -762.0231    297074.95    15.147975 
 4890000    1504.4996   -760.97891    298002.71     15.16834 
 4890500    1482.8984   -769.07267    280569.32    15.342781 
 4891000    1394.0477    -765.5666     289141.6    15.173638 
 4891500    1617.5318   -769.80673    297458.73    15.012816 
 4892000    1347.1427   -754.08921    311095.14    15.317502 
 4892500     1402.876   -753.19405    318296.66     15.01919 
 4893000     1564.008   -755.10749    318128.03    15.088127 
 4893500    1413.7869   -758.18616    302500.05    15.265037 
 4894000    1483.2534   -758.88454    297226.51    15.224106 
 4894500    1489.2662   -761.22005    298192.43    15.201483 
 4895000    1484.3451   -766.38047     282779.9    15.218969 
 4895500    1662.1143    -766.2053    274987.96    15.121521 
 4896000    1465.4136   -765.78437    297516.46    15.058174 
 4896500    1602.1027    -756.4234    302729.68    15.231411 
 4897000    1455.3557   -752.89288    313000.65    15.347818 
 4897500    1423.3781   -748.90312    324870.85    15.181817 
 4898000    1510.3277   -761.02926    307561.97    14.994215 
 4898500    1502.8067    -753.7176    308051.28    15.331227 
 4899000    1467.8826   -751.47456    325940.49    14.888371 
 4899500    1479.1504   -755.70014    314255.81    15.186152 
 4900000    1563.6152    -766.4624     290354.8    15.274541 
 4900500    1371.5482   -767.60172    283695.57    15.265234 
 4901000    1470.1873   -771.35412    269695.55    15.147493 
 4901500    1409.8903   -763.37735    292514.32    14.983636 
 4902000    1312.4201   -759.72508    304272.04    15.054812 
 4902500     1490.896   -754.90635    310093.67    15.197835 
 4903000    1531.4916   -759.52629    316748.63    15.011794 
 4903500    1445.8192   -755.29775    314449.07    15.107531 
 4904000    1355.8998   -760.93219     299291.9    15.119188 
 4904500    1434.0035      -769.62    287049.93    15.189463 
 4905000    1522.0493   -769.15398    281901.89    15.258751 
 4905500    1441.1277   -761.04868    295435.61    15.124114 
 4906000    1471.9692   -748.72192    303275.14    15.453474 
 4906500    1537.8874   -754.39859    318579.14    14.863411 
 4907000    1590.8303   -757.57154    306265.28    15.317284 
 4907500    1475.6213   -751.14884    313016.08    15.198288 
 4908000    1599.3239   -754.11594    315874.04    15.124183 
 4908500    1363.6679   -755.15924    309515.98    14.903938 
 4909000    1439.1278   -761.65289    297930.49    15.189733 
 4909500    1546.9726   -770.00744    290411.94    15.052403 
 4910000    1539.8095   -764.76652    285973.97    15.110777 
 4910500    1590.1292   -759.76295    302765.34    15.158298 
 4911000    1546.5923   -752.34658    324684.23    14.985166 
 4911500    1582.1537   -760.16536    307142.71    15.120995 
 4912000    1365.2005   -755.40668    297689.89    15.405001 
 4912500    1564.2598   -755.11319    308594.43    15.280237 
 4913000    1650.9619   -761.63458     298596.9    15.221864 
 4913500    1425.2559   -752.15297    290090.42    15.640608 
 4914000    1392.3582   -762.53502     279113.2    15.508427 
 4914500    1428.1485   -772.88375    278300.82     15.18957 
 4915000     1464.632   -763.13117    289735.18    15.323235 
 4915500    1376.3304   -759.59312    304651.52    14.961503 
 4916000    1500.4503    -756.2189    311531.55    15.260808 
 4916500    1541.5021   -763.16621    307616.81    15.066572 
 4917000    1422.9981   -758.15601    307299.13    15.219687 
 4917500    1405.7086   -753.89536    303727.48    15.393414 
 4918000    1507.1622   -764.86549    292018.39     15.05259 
 4918500    1581.6356   -762.85243     292130.9    15.175583 
 4919000    1421.6167   -769.44962    290914.68    15.078919 
 4919500    1475.6487   -760.09077    304159.74    15.341201 
 4920000    1509.4825    -761.4367    308637.21    15.024758 
 4920500    1591.4386   -756.01535    309599.39    15.237364 
 4921000    1536.0197   -762.90111    300186.96    15.187298 
 4921500    1482.1089   -766.95781     291111.7    15.159208 
 4922000    1379.9925    -766.2271    285767.18    15.240474 
 4922500    1429.6829   -765.28923    289742.54    15.111553 
 4923000    1381.7831   -766.77282    285507.12    15.101124 
 4923500    1425.8772   -772.20542    271204.13    15.144172 
 4924000    1514.3939   -761.54322    299826.82    15.091831 
 4924500    1385.1581   -757.80833    313195.48    15.042114 
 4925000     1417.376   -754.05458    322446.18    15.067222 
 4925500    1528.8499   -750.97016    316541.91    15.241572 
 4926000    1559.7487   -754.09637    314318.07    15.249044 
 4926500    1459.4089   -757.91735    306480.62    15.323827 
 4927000    1473.5543     -765.798    293769.61    15.073874 
 4927500    1480.9478   -760.10182    296595.53    15.364925 
 4928000    1483.9238   -742.84967    303835.94    15.735381 
 4928500     1513.269   -749.10994    301184.59    15.639261 
 4929000    1412.6817   -753.97047    269619.07    16.057413 
 4929500    1551.8458   -740.67807    295181.32    16.184964 
 4930000    1545.5792   -736.36403    312335.46    16.238438 
 4930500    1482.6223   -746.03399    289872.71    16.184673 
 4931000    1450.7022    -742.0307    280978.86    16.603484 
 4931500    1445.9503   -729.89199    306494.43    16.756756 
 4932000    1510.8807   -729.63243    316774.51    16.262304 
 4932500    1433.3275   -735.11197    308153.77    16.206056 
 4933000    1567.6372   -738.88726    300885.01     16.10053 
 4933500    1437.1388    -753.9024    281560.76    15.915036 
 4934000    1560.4851   -750.86693    297115.59    15.606548 
 4934500    1648.8474   -737.15812     319034.3    15.626341 
 4935000    1522.4014   -745.73949    317051.66     15.60956 
 4935500    1598.7941    -748.2879    300741.43    15.590263 
 4936000    1527.8179   -745.29813     325806.6    15.141644 
 4936500    1502.5548   -758.90719    313977.37    15.166287 
 4937000    1492.8061   -754.02406     307514.9    15.286915 
 4937500     1564.093   -759.83716    299985.99    15.277081 
 4938000    1404.0405   -767.26227    280562.09     15.31933 
 4938500    1519.9295   -762.22556    282907.44    15.392315 
 4939000    1385.9038   -758.77511    296010.23    15.322412 
 4939500    1356.8281   -759.93668    293940.97     15.26243 
 4940000    1620.3784   -745.37052    313543.51    15.686316 
 4940500    1608.2636   -746.17592     314626.7    15.618965 
 4941000    1553.2181   -741.92572     312401.4    15.858732 
 4941500     1445.842   -740.80449    295484.79    16.221612 
 4942000    1380.2653   -750.55303    281711.98    16.136923 
 4942500    1486.1591   -759.06073    298666.27    15.459653 
 4943000    1443.6219   -757.91229    303272.87    15.288724 
 4943500    1503.9392   -754.87083    307654.65    15.142753 
 4944000    1422.2331   -753.03349    320805.57    15.089608 
 4944500    1432.5608   -750.24693    315441.96     15.25913 
 4945000    1679.7885   -750.36756    310384.74    15.280906 
 4945500    1534.3798   -759.88292    297349.03    15.266545 
 4946000    1467.5624   -765.58088    288728.76    15.316919 
 4946500    1420.2021   -759.12231    294183.73    15.276818 
 4947000    1427.2758   -753.24294    294159.45    15.748082 
 4947500    1431.2906     -757.227    288083.48    15.706119 
 4948000    1395.0179     -734.261    306242.38    16.353797 
 4948500    1594.4502   -728.90375    307200.07    16.654564 
 4949000    1525.8524   -727.02449    314310.99    16.801388 
 4949500    1449.7181   -736.23066    293607.86     16.70994 
 4950000    1476.2783   -736.93335    297153.04    16.421297 
 4950500     1346.056   -736.77798    288313.49    16.958686 
 4951000    1469.9871    -736.1168    297958.67    16.477122 
 4951500    1534.4937   -731.43232    313559.33    16.590939 
 4952000    1499.4768   -747.41566    274392.87    16.274377 
 4952500    1515.8231   -748.86454    288864.65      15.9646 
 4953000    1504.4383   -748.79007    291054.04    15.884388 
 4953500    1500.8125   -760.84673    285861.21    15.370158 
 4954000    1555.8031   -759.79727    294015.97    15.298134 
 4954500    1468.5131   -762.01616     298930.9    15.064052 
 4955000    1437.6446   -749.41804    303824.37    15.548644 
 4955500     1495.906   -748.80431    310042.62    15.217096 
 4956000    1488.9573   -750.46618    318896.26    15.345266 
 4956500    1363.7076    -763.0729     306538.2    15.000577 
 4957000     1508.052   -766.80237    295499.12    15.139041 
 4957500    1575.8255   -754.59943    291549.68    15.484264 
 4958000    1431.7029    -755.7481    286509.93    15.657111 
 4958500    1511.6043   -744.08461     309169.6    15.775549 
 4959000    1513.1294   -745.59521    321343.02    15.411999 
 4959500    1575.7261   -759.31292     304082.9    15.170678 
 4960000    1435.5523   -758.94959    291627.29    15.300784 
 4960500    1473.8748   -774.96651    277421.57    15.094706 
 4961000    1455.3342    -770.7834     278189.6    15.208692 
 4961500    1462.9905   -766.62622    283511.34    15.271956 
 4962000    1448.5745    -762.8697    286281.97    15.392437 
 4962500    1590.2163   -763.58523    296080.54    15.069812 
 4963000    1576.8974   -755.27478    325725.97    15.145398 
 4963500    1560.9191   -754.27995    318177.39     15.20795 
 4964000    1436.4735   -751.64661     320702.9    15.232408 
 4964500    1542.0447   -765.51398    296542.69    15.025928 
 4965000    1618.6624   -755.09205    301457.49    15.357696 
 4965500    1473.9052   -759.26447     306437.4    15.203657 
 4966000     1534.142   -761.47506    303214.93    15.246046 
 4966500    1362.8374   -764.45656    293499.44    15.072946 
 4967000    1333.5641   -755.30918    285771.28    15.668724 
 4967500    1396.7054   -750.21019    300004.68    15.642216 
 4968000    1384.1756   -763.78595    295801.91     15.23928 
 4968500    1493.2709   -767.80848     292405.5     15.06168 
 4969000    1370.9908   -745.84752    302990.96    15.667791 
 4969500    1505.3009   -745.03071    307410.78    15.602532 
 4970000    1556.8436   -756.26197    299644.87    15.459255 
 4970500     1570.133   -765.60009    284395.69    15.349208 
 4971000    1528.0765    -766.4463    283529.21    15.267547 
 4971500    1497.9596   -763.99081    294876.51    15.038819 
 4972000    1524.2418   -762.03734    293952.47     15.15645 
 4972500     1445.291   -759.39532    306559.23     15.03395 
 4973000    1564.4642    -758.7177    315045.81    15.038785 
 4973500    1549.3545   -751.03867    318938.24    15.232497 
 4974000    1523.6848   -753.47414    314579.46    15.028968 
 4974500    1547.9369   -759.16832    296831.56    15.279049 
 4975000    1538.6997   -763.93981    292136.61    15.152175 
 4975500    1600.1446   -762.06039    296369.08    15.191767 
 4976000    1682.8774   -764.44408    289388.92    15.333646 
 4976500     1418.832   -771.04095    278975.42    15.187359 
 4977000    1514.0402   -763.31838    289078.53    15.248412 
 4977500    1663.9882   -766.74793    286830.71    15.343095 
 4978000      1450.95   -749.01892    302349.64    15.599717 
 4978500    1601.1973   -735.53357    316897.22    15.673431 
 4979000    1498.5196   -747.05041    311919.15    15.526805 
 4979500    1472.9066   -745.42154     313670.7    15.589273 
 4980000    1537.3441   -740.52377    298465.12    15.994303 
 4980500    1481.0825   -741.56875    291649.84    16.345752 
 4981000    1489.9867   -733.97976    320733.42    15.974528 
 4981500    1488.3318   -738.16773    310465.44    16.109124 
 4982000     1515.471   -742.65193    297808.14    16.132705 
 4982500    1366.9971   -739.84156     293486.2    16.054834 
 4983000    1576.5609   -736.34116    303667.65    16.373289 
 4983500    1521.4579   -732.09478    299293.48    16.866128 
 4984000    1467.2112   -737.34472    298387.94    16.392092 
 4984500    1559.6317   -743.44485     291502.1    15.976383 
 4985000    1479.9011   -739.11963     317612.5    15.792321 
 4985500    1307.0352   -753.28508    307554.13    15.450521 
 4986000    1567.8111   -761.67211    302216.21    14.999504 
 4986500    1405.6056   -762.56238    291206.73    15.371522 
 4987000    1578.8151   -773.32575    270147.09    15.313714 
 4987500    1487.3075   -766.55873    281849.33    15.168436 
 4988000    1557.6112   -761.62807    295648.05    15.074851 
 4988500    1559.5623   -759.36713    303739.07    15.159293 
 4989000    1637.7251   -752.25567    319525.29    14.900665 
 4989500    1490.6944   -754.49215    305370.78    15.388653 
 4990000    1403.0748   -763.66685    305567.78    14.985251 
 4990500    1401.8451   -757.25738    299102.52    15.282009 
 4991000    1475.5424   -759.04721    307508.81    14.997605 
 4991500    1512.6266   -758.16926    312104.21    15.264079 
 4992000     1474.038   -755.58137    312196.85     15.09043 
 4992500    1446.8516   -762.79292    302306.19     15.08524 
 4993000    1389.6689   -747.58826    298106.29     15.72232 
 4993500    1451.8024   -751.99542    285020.76    15.709077 
 4994000     1425.836   -752.50156     286998.7    15.863654 
 4994500    1741.3401   -738.30217    315224.76    15.760376 
 4995000    1659.8358   -737.39029    329735.41    15.546245 
 4995500    1379.9653   -752.89317    309542.31    15.394522 
 4996000     1571.554   -752.96868    290734.95    15.721692 
 4996500    1530.5479   -753.42145    272262.88    15.984834 
 4997000    1378.7368    -736.2956    311297.78    16.183006 
 4997500    1511.2962   -734.10682    319689.69    16.191146 
 4998000    1548.7433   -739.45612    304874.56    16.043146 
 4998500    1505.2009   -737.22048    292290.74    16.443408 
 4999000     1523.642   -730.55652    311131.83    16.515048 
 4999500    1500.8849   -730.79684    310667.58     16.57014 
 5000000     1566.837   -742.25312    274898.21    17.058374 
Loop time of 2008.11 on 8 procs for 5000000 steps with 256 atoms

Performance: 430.254 ns/day, 0.056 hours/ns, 2489.897 timesteps/s
95.9% CPU use with 8 MPI tasks x no OpenMP threads

MPI task timing breakdown:
Section |  min time  |  avg time  |  max time  |%varavg| %total
---------------------------------------------------------------
Pair    | 863.58     | 898.25     | 933.87     |  77.1 | 44.73
Neigh   | 19.05      | 19.588     | 19.97      |   5.7 |  0.98
Comm    | 219.17     | 255.07     | 291.13     | 152.1 | 12.70
Output  | 150.3      | 150.31     | 150.34     |   0.1 |  7.49
Modify  | 665.96     | 668.81     | 670.96     |   5.9 | 33.31
Other   |            | 16.09      |            |       |  0.80

Nlocal:    32 ave 32 max 32 min
Histogram: 8 0 0 0 0 0 0 0 0 0
Nghost:    1067.88 ave 1075 max 1059 min
Histogram: 1 0 1 2 0 0 0 1 1 2
Neighs:    2751.12 ave 2782 max 2729 min
Histogram: 1 1 1 1 1 2 0 0 0 1

Total # of neighbors = 22009
Ave neighs/atom = 85.9727
Neighbor list builds = 176203
Dangerous builds = 0

write_data	data.final.${p_id}
write_data	data.final.3
Total wall time: 0:33:28
