LAMMPS (8 Feb 2019)
Processor partition = 1
echo both

include		in.partitions
variable p_id world   0 1 2 3
include		in.temp
variable	temperature equal 1500.0
variable	tempDamp equal 0.1 # approx 0.1 ps
include		in.pressure
variable	pressure equal 300000.
variable	pressureDamp equal 1.0
include 	in.seed
variable	seed world 74581 3459 97394 49764
units		metal
include		in.box
#variable        side equal 4
#lattice         fcc 4.046
#region          box block 0 ${side} 0 ${side} 0 ${side} units lattice
#create_box      1 box
#create_atoms    1 box
#change_box	all triclinic

variable 	mass equal 26.981539
read_data	data.initial
  orthogonal box = (0 0 0) to (15.1524 15.1524 15.1524)
  2 by 2 by 2 MPI processor grid
  reading atoms ...
  256 atoms
  reading velocities ...
  256 velocities
mass            1 ${mass}
mass            1 26.981539
include 	in.setup
variable	out_freq equal 500
variable	out_freq2 equal 500

neigh_modify    delay 10 every 1
include		in.al
### Argon Potential Parameters ###
pair_style 	eam/alloy
pair_coeff 	* * Al99.eam.alloy Al

timestep	0.002 # According to Frenkel and Smit is 0.001

thermo          ${out_freq}
thermo          500
thermo_style 	custom step temp pe press lx


restart 	${out_freq} Restart.lmp.${p_id} Restart2.lmp.${p_id}
restart 	500 Restart.lmp.${p_id} Restart2.lmp.${p_id}
restart 	500 Restart.lmp.1 Restart2.lmp.${p_id}
restart 	500 Restart.lmp.1 Restart2.lmp.1



# NPT

include		in.dump
dump            myDump all atom ${out_freq2} dump.al.${p_id}
dump            myDump all atom 500 dump.al.${p_id}
dump            myDump all atom 500 dump.al.1
dump            myDcdDump all dcd ${out_freq2} out.${p_id}.dcd
dump            myDcdDump all dcd 500 out.${p_id}.dcd
dump            myDcdDump all dcd 500 out.1.dcd
dump_modify	myDump append yes
dump_modify     myDcdDump append yes


timer 		timeout 23:50:00 every 1000
New timer settings: style=normal  mode=nosync  timeout=23:50:00

fix             1 all plumed plumedfile plumed.start.dat outfile plumed.out.${p_id}
fix             1 all plumed plumedfile plumed.start.dat outfile plumed.out.1
fix             2 all nph aniso ${pressure} ${pressure} ${pressureDamp} couple xy
fix             2 all nph aniso 300000 ${pressure} ${pressureDamp} couple xy
fix             2 all nph aniso 300000 300000 ${pressureDamp} couple xy
fix             2 all nph aniso 300000 300000 1 couple xy
fix             3 all temp/csvr ${temperature} ${temperature} ${tempDamp} ${seed}
fix             3 all temp/csvr 1500 ${temperature} ${tempDamp} ${seed}
fix             3 all temp/csvr 1500 1500 ${tempDamp} ${seed}
fix             3 all temp/csvr 1500 1500 0.1 ${seed}
fix             3 all temp/csvr 1500 1500 0.1 3459
fix		4 all momentum 10000 linear 1 1 1 angular

run             5000000 upto # 10 ns
Neighbor list info ...
  update every 1 steps, delay 10 steps, check yes
  max neighbors/atom: 2000, page size: 100000
  master list distance cutoff = 8.28721
  ghost atom cutoff = 8.28721
  binsize = 4.1436, bins = 4 4 4
  1 neighbor lists, perpetual/occasional/extra = 1 0 0
  (1) pair eam/alloy, perpetual
      attributes: half, newton on
      pair build: half/bin/atomonly/newton
      stencil: half/bin/3d/newton
      bin: standard
Per MPI rank memory allocation (min/avg/max) = 4.017 | 4.017 | 4.017 Mbytes
Step Temp PotEng Press Lx 
       0    1414.9716   -816.23515    248923.17    15.152402 
     500    1463.9176   -771.20834    277778.08    15.183847 
    1000    1589.2123   -768.26881    285522.71    15.210276 
    1500    1416.3751   -770.32943    286111.22    15.243958 
    2000    1508.8841   -769.89571    276118.57    15.353327 
    2500    1442.6396   -764.21481    289283.96    15.108061 
    3000    1414.0689   -756.83666     308550.2    15.107721 
    3500    1540.5151   -766.63728    294082.35    15.220563 
    4000    1413.1546   -766.58991    291420.73    15.224418 
    4500    1516.8751   -760.11259    290997.03     15.34679 
    5000      1554.24   -767.97293    287228.83    15.373964 
    5500    1382.2283   -756.55813    306285.18    15.316067 
    6000     1543.863   -761.07007    298043.95    15.269191 
    6500    1475.1924   -756.72504    310859.59    15.312352 
    7000    1514.9996   -755.35085    317449.92    15.235516 
    7500    1538.6821   -761.05949    303559.12    15.187402 
    8000    1619.6547   -761.06651    299109.54     15.20154 
    8500    1513.6813   -755.73742    305639.96    15.054559 
    9000    1555.1041   -760.29186     300244.3    15.160596 
    9500    1427.6699   -760.76007    299366.23    15.189083 
   10000     1447.645   -764.59778    297495.32    15.115271 
   10500    1638.4144   -763.77816    304399.59     15.08235 
   11000    1456.5933   -761.37451    300497.63    15.185979 
   11500    1554.4915   -755.72565    306027.86     15.21215 
   12000    1470.0975   -758.09777    313071.69    15.146065 
   12500    1531.2257   -752.86154    314559.57    15.282908 
   13000    1372.1294   -761.59512    303295.04    15.115628 
   13500    1643.1636    -757.5866    300143.08    15.327852 
   14000    1401.8117   -757.02367    297310.03    15.325498 
   14500    1377.8076   -756.75961    292870.39    15.298749 
   15000    1441.5805   -758.54453    294590.88    15.350498 
   15500    1394.6176   -763.78206    284477.08    15.060261 
   16000     1493.544   -766.02046    285608.45    15.280226 
   16500    1646.6382   -770.79105    282943.58    15.309583 
   17000    1592.6228   -766.96213    278879.52     15.36471 
   17500     1407.462   -763.26312    282401.52    15.363395 
   18000    1410.4012   -757.42461    298980.95      15.3163 
   18500    1661.2968   -752.80138    311081.56     15.26239 
   19000    1506.9335    -749.3553    312640.92    15.408027 
   19500    1641.7544   -757.04254    311144.18     15.09221 
   20000    1525.4743   -755.57152    316708.85    15.117442 
   20500    1540.7353    -752.6125    317678.52    15.101499 
   21000    1582.6168   -752.88029    306995.43    15.351032 
   21500    1564.9836   -764.73883    295480.76    15.170736 
   22000    1568.6936   -760.29302    295921.89    15.348194 
   22500    1625.9452   -759.04573    285746.17    15.415557 
   23000    1418.0884   -765.84395    278691.75    15.437222 
   23500    1302.9242   -766.15512    279726.51    15.466828 
   24000     1463.095   -758.53632    288733.96    15.398677 
   24500    1435.6353   -755.78988    299342.23    15.267352 
   25000    1468.5059   -755.58638     301022.5    15.341295 
   25500    1542.8728   -752.10623    303915.97    15.409221 
   26000    1469.9883   -757.22346    307125.04    15.136802 
   26500    1567.4167   -750.85411    314035.16    15.388124 
   27000    1588.8782   -753.60873    310814.38     15.20965 
   27500    1601.0452   -755.70838    300257.45    15.390309 
   28000    1325.8365   -758.01964    283766.89    15.547549 
   28500    1409.4201   -755.62673    286768.01    15.530006 
   29000    1463.0723   -765.50242    283889.14    15.419909 
   29500    1522.5015   -773.73331    261870.74    15.415478 
   30000    1322.2348   -761.64191    284276.77    15.463666 
   30500    1367.9354   -759.09623    294851.99    15.378175 
   31000    1507.1216   -757.96738    293474.55    15.336645 
   31500    1466.6482   -752.67743    302284.81     15.46622 
   32000      1414.97   -749.28941    309575.79    15.438955 
   32500    1417.7309    -753.0433    305094.54    15.413089 
   33000    1413.9032   -740.12479    328345.22    15.386777 
   33500    1538.8413   -749.95867    315911.88    15.378478 
   34000    1534.1245   -747.24807       312313    15.457846 
   34500    1529.0186   -756.78701    302390.59    15.107775 
   35000    1537.5997   -749.33647    302212.14    15.538595 
   35500    1444.2695    -755.2127    298114.04    15.314075 
   36000    1617.2905   -754.79171    297519.16     15.43236 
   36500    1512.9471   -750.77481    309949.84    15.466436 
   37000    1481.9535   -740.62554    324027.68    15.558912 
   37500    1526.0148   -729.87101     310429.6    16.143182 
   38000    1509.3849   -730.34099    310498.09    16.661438 
   38500    1369.8896   -729.43544    308034.37    16.629182 
   39000    1472.0413   -730.09134     314281.1    16.725803 
   39500    1566.1754    -732.9048    294553.36    16.719679 
   40000    1524.3723   -736.97957    291362.36    16.738997 
   40500     1497.902   -736.63102    299146.76    16.892617 
   41000    1615.0982   -731.62988    308256.91    16.938502 
   41500     1608.867   -732.09194    311165.11    16.754668 
   42000    1591.6278   -724.35427     315648.4    16.703875 
   42500    1457.6304   -731.02882    305436.31    16.634906 
   43000    1476.0415   -735.58297    280472.23    16.803668 
   43500    1617.1408   -730.36652    295654.59    16.780929 
   44000     1564.041   -730.05113    314773.52    16.681996 
   44500    1311.6765   -728.51464    313094.28    16.662149 
   45000    1350.6044   -733.63749    300639.56    16.661513 
   45500     1520.911   -734.19014    301592.25     16.84761 
   46000    1474.5299   -726.14506    317266.21    16.786729 
   46500    1582.6237   -730.63693    303164.52    16.800387 
   47000    1566.4725   -735.75892    299388.72    16.587473 
   47500    1296.7954   -730.12614    299050.94    16.719129 
   48000    1534.0518   -729.71168    309374.58    16.730412 
   48500    1509.5321   -737.61016    297242.57    16.779646 
   49000    1383.8171   -742.92196    270407.41    16.933708 
   49500    1550.9679   -737.67877    284647.57    16.884247 
   50000    1410.1424   -740.50355    284259.31    16.830412 
   50500    1476.4528   -727.31945    307046.12    16.855428 
   51000    1709.1008   -728.93829     311861.6    16.836263 
   51500    1451.8074   -732.25721    299655.32    16.748599 
   52000    1545.6178   -734.93474    297905.13     16.81043 
   52500    1473.8095   -731.76582     306252.4    16.656779 
   53000    1470.9685   -733.05778     298308.8    16.622862 
   53500    1569.2723   -736.04978    296547.21    16.759238 
   54000    1577.5711   -737.06862     290728.7    16.926073 
   54500    1450.0173   -731.41041    296438.44    16.774124 
   55000    1318.8103   -736.37241    281076.58    16.724657 
   55500    1502.3032   -735.25479    302026.67     16.72592 
   56000     1453.823   -732.44238    309062.56    16.863908 
   56500    1537.6692   -723.42778    331813.16    16.695533 
   57000    1431.4411   -736.04511    294144.18    16.697013 
   57500    1528.5414   -738.85756    288424.61    16.781518 
   58000     1434.964   -728.03835    313639.78    16.507694 
   58500    1499.2778   -728.08682    310463.42    16.641266 
   59000    1436.2879   -733.87862    298017.19    16.763435 
   59500     1598.105    -733.5031    299862.73    16.806746 
   60000    1506.2823   -736.31886    295535.48    16.941236 
   60500    1565.5972   -723.65329     322952.9     16.83439 
   61000    1526.8966   -731.75758    305915.56    16.702865 
   61500    1673.2075   -740.19603    291326.68    16.755616 
   62000    1523.2371   -740.50255     278554.4    16.797542 
   62500    1437.8166   -742.55315    286901.65     16.80339 
   63000    1500.1993    -730.1266    312830.78    16.692362 
   63500    1520.1997   -725.05012    319997.34     16.57263 
   64000    1464.7099   -732.89267    294243.77    16.764204 
   64500    1318.4746   -738.82317    281018.57     16.76924 
   65000    1489.5755   -732.68524    299352.18    16.783909 
   65500    1463.1862    -729.8815     313775.9    16.740169 
   66000    1562.3415   -732.33538     298826.3    16.752551 
   66500    1496.4503   -741.29267    284650.33    16.844762 
   67000    1555.4226   -737.01387    291112.64    16.764986 
   67500    1484.5968   -728.49572    305994.96    16.806087 
   68000    1413.7131   -739.24496    287017.22    16.652467 
   68500     1588.332   -736.26782    293223.55    16.663522 
   69000    1450.3652   -730.95551    303941.61     16.69256 
   69500     1417.075   -721.21866    320271.32    16.675487 
   70000    1490.4515   -726.30845    318374.37    16.635379 
   70500    1511.7873   -727.82735     312754.9    16.736673 
   71000     1557.194   -731.35624    300149.66    16.798279 
   71500    1505.4924   -741.43822    281486.01    16.872003 
   72000    1391.6482   -738.22492    291761.63    16.825223 
   72500    1531.8101   -728.44144    310166.79    16.492908 
   73000    1566.4313   -735.28861    293793.96    16.726172 
   73500    1505.3429   -739.42359    290102.73    16.582854 
   74000    1428.6304   -730.75097    306121.14    16.704752 
   74500    1511.3717    -736.8576    293850.69    16.729907 
   75000     1509.205   -736.17692    300933.05    16.618652 
   75500    1574.7063   -736.29771    299859.76    16.894547 
   76000    1578.7456   -740.78796    284382.16    17.014887 
   76500    1511.0543   -732.40173    301446.94    16.798431 
   77000    1463.7214    -733.0588    299126.64    16.589507 
   77500    1494.2005   -740.07305     282022.5    16.805336 
   78000     1399.651   -735.63827    290166.64    16.795543 
   78500    1416.0606   -724.67925    312356.52    16.829412 
   79000    1685.2795   -731.96463    306719.29    16.853678 
   79500     1532.256   -749.20787    265359.96    16.873517 
   80000    1506.8873   -738.83524     291374.2    16.810533 
   80500    1451.9615     -731.778    310127.75    16.461385 
   81000    1485.3845   -742.66877    281948.79    16.974162 
   81500    1328.4422   -737.80046    297425.33    16.650876 
   82000    1536.5301   -727.93482     315009.2    16.729111 
   82500    1582.6011   -731.62125    314022.02     16.70756 
   83000    1520.8819   -733.90092    299356.06    16.443607 
   83500    1427.6842   -741.96192    279713.64    16.674434 
   84000    1422.8632   -736.55007    290711.88    16.609239 
   84500    1461.7345   -731.08084    306967.38    16.879199 
   85000    1459.8724    -727.6637    315918.51    16.757019 
   85500    1346.5435   -733.87562    297988.73    16.543548 
   86000     1482.715   -729.97576       304981    16.708556 
   86500     1509.991   -729.24506    314758.18    16.465156 
   87000     1589.861   -741.13584    287600.75    16.715299 
   87500    1511.8252   -741.68392    287521.42    16.545392 
   88000    1505.5174   -733.62397    308396.83     16.59825 
   88500     1616.504   -725.57024    319180.68    16.777006 
   89000    1516.4238   -738.36853    293358.25    16.607085 
   89500    1481.2723   -729.94564    322053.22    16.434296 
   90000    1449.6169   -739.61764    291562.06    16.648382 
   90500    1544.8802   -738.72624    289996.02    16.564561 
   91000    1580.0323   -736.24079    299003.79    16.495655 
   91500    1396.7365   -732.23101     306260.2    16.490661 
   92000    1484.5788   -739.45507    282891.56    16.919511 
   92500    1482.2285   -730.26247       312456    16.851013 
   93000    1409.4988   -736.90723    292958.82    16.932963 
   93500    1449.9122    -736.9335    289362.88    16.853997 
   94000     1584.858   -727.95306    317134.02    16.716794 
   94500    1542.0389   -730.39652    306660.65    16.779044 
   95000    1625.5122   -725.97835     321638.8    16.679732 
   95500    1618.2563   -736.80065    294768.11     16.56771 
   96000    1490.5814   -746.08537    279776.78    16.610469 
   96500      1407.95   -730.27109    311204.21    16.462887 
   97000    1443.8804   -732.22032    311568.43    16.434961 
   97500    1405.6377   -740.07463    283753.23    16.524555 
   98000    1528.8605   -732.14381    312025.77    16.562108 
   98500    1446.9506   -732.15048    312452.06    16.420728 
   99000    1437.5131   -739.43314    279457.97    16.594169 
   99500    1571.3416   -735.25831    296902.05     16.45507 
  100000      1453.31     -736.054    309967.89    16.393313 
  100500    1390.6292   -739.96479    284597.34    16.512097 
  101000    1617.9984    -734.6013     296513.9    16.980951 
  101500    1454.1516   -734.08567    303680.45    16.364057 
  102000    1550.1515   -729.01501    307212.52    16.832502 
  102500    1496.0504   -730.49702    315587.45    16.339545 
  103000    1769.7044   -735.29851    307673.41    16.510685 
  103500    1577.4735   -739.75415     290783.4    16.554021 
  104000    1439.0502    -731.5752    315016.22    16.246582 
  104500    1557.5908   -734.40258    312938.47    16.317433 
  105000    1519.8246    -733.1849    301521.88    16.423566 
  105500     1581.157   -742.17044    284598.97    16.447748 
  106000    1474.2605   -728.73257    312078.64    16.832866 
  106500    1364.1004   -727.92482    310860.15    16.298613 
  107000    1478.7867   -736.01461    300864.12    16.469068 
  107500    1502.1674   -734.23404    308370.27    16.556077 
  108000    1522.5864   -734.68042    298696.18    16.572159 
  108500    1556.0041   -742.58896    295502.57    16.235834 
  109000     1484.638     -736.737    298449.97    16.613263 
  109500     1455.309   -733.77797    301008.97     16.53713 
  110000    1538.1722   -738.52928    299902.12    16.574489 
  110500    1536.1266   -737.35747    284664.98    16.886368 
  111000     1553.939     -735.562    298000.61    16.637853 
  111500    1460.2622   -733.97488     304680.9    16.520092 
  112000    1531.6598   -737.14566    297323.19     16.38468 
  112500      1502.14   -732.33941    301576.83     16.97286 
  113000    1519.0285   -723.97552    324280.49     16.71673 
  113500     1303.691   -733.10456    292516.56    16.920994 
  114000    1513.1532   -735.54746    291053.11    16.921132 
  114500    1486.6383   -721.33746    328158.25    16.915965 
  115000    1602.0723   -730.41198    303708.22    16.850755 
  115500    1376.0966   -735.99278    299460.25    16.877515 
  116000    1364.2329   -744.30505    276716.02    16.491853 
  116500    1484.9642   -736.82975    298532.48    16.398037 
  117000    1505.4628   -741.71503    287374.41    16.470783 
  117500    1473.7926   -735.69445    304221.56    16.493737 
  118000    1399.4779   -730.31403    318138.16     16.37711 
  118500    1502.2046   -739.38319    291405.57    16.406537 
  119000    1487.3593   -740.67979    288568.83    16.369246 
  119500    1451.5633    -734.7686    297364.48    16.351161 
  120000    1435.2657   -733.33029    301956.27     16.65611 
  120500    1374.4286   -730.06435    308351.92    16.415609 
  121000    1540.7084   -734.69487    308398.84    16.337191 
  121500    1545.5805   -742.56994    282264.56    16.373238 
  122000    1510.9782   -729.81718    317523.67    16.326626 
  122500    1585.1709   -738.34672    298647.94    16.523401 
  123000    1410.7737   -743.07232    283213.29    16.449078 
  123500    1493.6298   -739.46701    290426.48    16.406153 
  124000    1549.2146   -733.37953    311681.15    16.391049 
  124500    1568.7524   -738.52222    289080.33    16.501777 
  125000    1504.9313   -737.68849    288351.56    16.507426 
  125500    1641.4056    -736.3212    308429.82    16.341541 
  126000    1659.8864   -736.59087    306811.18    16.406236 
  126500    1469.8422   -736.77297    293920.17    16.454759 
  127000    1454.1351   -738.68254    298838.83    16.263428 
  127500    1464.3559   -735.51407    303689.81    16.326666 
  128000    1665.1185   -732.72786    313519.19    16.460695 
  128500    1386.9074   -736.28461    298973.08    16.627798 
  129000     1454.583   -733.06757    299315.17    16.670338 
  129500    1614.1611   -728.50273    308383.66    16.923667 
  130000    1567.0677   -736.28498    292773.48    16.806186 
  130500    1576.9959   -729.13403    308838.25    16.713872 
  131000    1428.8343    -734.0761     308655.1    16.261152 
  131500    1409.9688     -735.072    308906.31    16.343458 
  132000    1382.1371   -749.77421     283585.8    16.044632 
  132500    1447.2845   -759.65145    285850.09    15.446526 
  133000    1476.0335   -760.62339    296140.72    15.404774 
  133500    1406.0429    -742.3268    304806.23    15.764695 
  134000    1525.9455    -740.6459     304015.1     16.06338 
  134500    1518.4532   -748.76882    315427.83     15.42048 
  135000    1445.4544    -752.3658    303306.76    15.530741 
  135500    1492.7353   -752.37162    289158.05    15.494239 
  136000    1311.2201   -754.43529    280558.21    15.759463 
  136500    1511.5244   -754.66436    295164.01     15.48981 
  137000    1636.6353   -746.04193    317880.83    15.546829 
  137500    1471.1881   -738.21727     325384.3    15.398575 
  138000    1562.5387   -753.29877    301145.27    15.548133 
  138500    1592.6628   -756.11811    299304.24    15.456275 
  139000    1477.4135   -748.73638    302496.16    15.431775 
  139500    1429.7316   -750.13962     300944.1    15.536616 
  140000    1483.3786   -757.53384    284565.72      15.4937 
  140500    1501.7317   -761.19409    274169.68    15.644031 
  141000     1583.727   -764.65391    281196.71     15.48669 
  141500    1305.3474    -762.1113    291649.23    15.392545 
  142000    1377.4406   -750.47008    298308.48    15.603303 
  142500    1390.3463   -760.07416    294792.11    15.311633 
  143000    1407.1948   -745.75842    290407.95    15.820148 
  143500    1421.7661   -738.26287    310902.23    15.882444 
  144000    1537.1197   -735.10362    315553.22    15.966729 
  144500    1560.2734   -745.89136    294006.72    15.832114 
  145000    1458.0304   -747.47018    291253.62    15.832032 
  145500     1343.329   -750.06986     283203.5    15.888712 
  146000    1448.6422   -744.54121     286157.5    16.246431 
  146500    1593.0128   -739.38069    296497.15    16.355697 
  147000    1529.5439   -736.91546    296626.06    16.548224 
  147500    1426.6078   -738.28119    292876.71    16.248436 
  148000    1663.6887   -744.41857    288226.34     16.17224 
  148500    1443.0157   -755.96824    299582.37    15.344135 
  149000    1431.3502    -758.6061    295008.06     15.33801 
  149500    1455.6784    -757.7553    306448.79    14.926624 
  150000    1460.8398   -751.75514    314776.74    15.474307 
  150500    1494.6899   -747.38319     318189.9    15.383984 
  151000     1696.456   -741.93028    319101.31    15.636705 
  151500    1596.2303   -740.34894    302161.45    15.999161 
  152000    1439.2292   -737.21649    292250.59    16.536314 
  152500    1345.1122    -739.8494    294863.27    16.146423 
  153000    1545.0763   -750.22674    290374.88    15.785149 
  153500    1511.4526   -763.19394     284198.2    15.469951 
  154000    1451.3604   -761.29481    285054.62    15.479914 
  154500    1634.3719   -766.98181    290567.61    15.071076 
  155000    1534.2374   -768.10857    294472.02    15.101732 
  155500    1482.3096   -763.66444    288189.87    15.029516 
  156000    1618.0638   -759.49652    308109.63    15.175132 
  156500    1460.6834   -754.12328    317616.38    15.012361 
  157000    1425.7695   -755.89316    313562.45    15.000661 
  157500    1484.1758   -762.91021    305304.02    15.141831 
  158000    1493.5619   -759.78964    295797.64    15.028353 
  158500    1508.1558   -762.67687    291387.12    15.124691 
  159000    1420.8138   -761.30118    290691.07    15.012666 
  159500    1509.3865   -762.13451     296445.5    15.194448 
  160000    1596.5073   -757.39311    316174.35    14.969469 
  160500    1436.3989   -759.30145    310724.29    15.060058 
  161000     1474.557   -757.85054    314905.35    14.975854 
  161500    1525.0126   -763.53831    315967.06    15.052256 
  162000    1664.4886   -760.75408    305343.43    15.031667 
  162500    1523.0619   -767.61882    302372.17    15.098278 
  163000    1307.0239   -757.35094    297598.54    14.877758 
  163500     1410.234   -756.14405     295265.9    15.594903 
  164000    1468.5918   -758.30658    297235.36     14.96886 
  164500    1485.1743   -766.97851    292277.13     15.15022 
  165000    1540.7518   -759.00927    301318.04    15.073363 
  165500    1601.1758   -763.57042    300653.29    15.075964 
  166000    1472.4713   -764.45797    306084.98    15.024417 
  166500    1495.4564   -761.36991    307130.16    15.046716 
  167000     1585.041    -758.4739    308740.31    15.025122 
  167500    1494.8051   -769.45416    288108.38    15.181353 
  168000    1547.6406   -767.39102    292385.16    15.148458 
  168500     1583.653   -771.32984    286634.13    15.084394 
  169000    1445.1421   -768.42649    285094.51    15.091114 
  169500     1392.171   -765.70963     288202.1    15.071563 
  170000    1364.8519   -766.34255    278281.54    15.129251 
  170500     1428.956   -771.34597    273095.69    15.143778 
  171000    1360.6284    -768.2738    279983.51    15.084874 
  171500    1442.6744   -767.66524    286193.89    15.118733 
  172000    1400.2359   -768.98568    291127.19    15.077532 
  172500    1469.6977   -760.98119    293630.93    15.333998 
  173000    1599.9016   -757.57562    292926.12    15.373709 
  173500    1402.8843   -759.94319    292927.64    15.433369 
  174000    1365.7608   -749.37345    299819.45    15.685019 
  174500    1576.0913   -738.56348    318331.65    15.825365 
  175000    1521.2547   -738.15154    299666.56    16.102388 
  175500    1433.7989    -750.0606       276176    15.893259 
  176000    1449.1125    -751.1026    294855.54    15.810842 
  176500     1324.581   -740.78747    320582.41    15.526098 
  177000    1560.2985   -755.61782    315630.73    15.030812 
  177500    1599.2756   -758.74231    313454.22    15.041522 
  178000    1483.7119   -758.69772    318485.13    15.040595 
  178500    1484.4334   -761.54481    312606.79    15.043224 
  179000    1385.2592   -756.06862    313024.16    15.037382 
  179500    1447.4519   -754.77717    309830.56    14.975558 
  180000    1454.8541   -758.25414    312276.47    14.927608 
  180500     1458.049   -763.92368    298900.23    15.135982 
  181000      1575.19   -760.39144    297515.51    15.062411 
  181500    1441.8143   -764.99395    288949.15    15.149275 
  182000    1512.1766   -763.01249    291033.02    15.091993 
  182500    1522.8854     -767.135    289881.39    15.137683 
  183000    1525.4704   -769.15839    279419.63    15.016816 
  183500    1456.1487   -765.40917    290578.38    15.163326 
  184000    1324.3057   -766.17031    279203.55    15.072921 
  184500    1551.5829   -772.27222    273326.01    15.185957 
  185000    1432.1649   -766.08741    286428.16    15.087065 
  185500    1473.8625   -769.71329    287607.57    15.156021 
  186000    1537.8206   -766.44302    285069.21    15.002586 
  186500    1437.0961   -768.41936    298702.54    15.147738 
  187000    1523.6216   -761.55207     298364.2    15.055834 
  187500    1547.7864   -766.97837    287383.29    15.155842 
  188000    1339.6041   -768.92621    279055.43    15.178944 
  188500    1508.9036   -764.74732    287275.97     15.07416 
  189000    1514.6364   -765.03658    294370.83     15.16369 
  189500    1426.3822   -757.98686    307819.73    14.914139 
  190000    1586.3576    -761.3509    289767.99    15.510457 
  190500    1512.7017   -757.41641    292642.03    15.357579 
  191000    1531.2146   -755.67434    305376.51    15.327051 
  191500    1606.3194   -743.93104    309881.45    15.641042 
  192000     1618.007   -750.72197    316444.88     15.36834 
  192500    1392.1105   -745.83942    309697.23     15.62835 
  193000    1593.1347    -746.0285    296189.88    15.896983 
  193500    1597.4336   -738.36172    310804.42    15.947204 
  194000    1623.9901   -733.65792    305711.18    16.561436 
  194500    1498.5174   -738.40797    300090.14    16.248986 
  195000    1541.5299   -737.49346    294560.51    16.620739 
  195500     1408.189   -746.54784    294081.11    16.005383 
  196000     1501.571   -748.74963    288770.26    15.889246 
  196500    1476.0562   -765.10603     288404.6    15.327576 
  197000    1398.6974   -750.41166     292987.5    15.610048 
  197500    1510.5965    -766.9145    291310.56    15.238443 
  198000    1455.5243     -768.538    291891.72    15.137063 
  198500    1617.3057   -765.61089    290139.01     15.00644 
  199000    1592.5597   -770.66632    279578.28    15.161458 
  199500     1539.702   -769.88447    260567.75    15.097877 
  200000    1499.1274   -763.76672    289887.11     15.11621 
  200500    1625.5076   -767.55597    277541.34    15.034616 
  201000    1463.6429   -771.65169    282209.68    15.215959 
  201500    1459.6278   -766.68967    290808.18    15.174435 
  202000    1498.7835   -767.88256    290429.21    15.130154 
  202500    1449.5614   -757.01294    306683.18    14.904854 
  203000    1365.7282   -753.89088    301868.89    15.386754 
  203500    1483.0495   -752.88559    289797.58    15.594789 
  204000      1474.36   -766.67056    274258.36    15.441648 
  204500    1490.3987   -756.21308    291050.26    15.582802 
  205000    1610.8378   -764.77231       285644    15.494819 
  205500    1616.3892   -749.78591    288254.73    15.893929 
  206000    1446.5163   -733.84714    312714.59    15.934867 
  206500    1558.3922   -745.16654    317010.71    15.506405 
  207000    1613.9318   -750.81225       297413    15.684689 
  207500    1565.3303   -746.62981     296725.2    15.883975 
  208000      1555.48   -746.02045    314889.57    15.434296 
  208500    1708.2352   -751.22656    300521.82    15.605883 
  209000    1628.6696   -743.72811    294191.13    16.138121 
  209500     1570.161   -730.44749     302854.4    16.410296 
  210000    1473.9112   -745.22506    281867.49    16.435099 
  210500    1480.9277   -739.36276     292322.1    16.301185 
  211000    1547.5901   -730.71899    323526.12    16.186048 
  211500    1418.0075   -734.93175    297833.51    16.382013 
  212000    1520.4613   -738.32768    291656.12    16.347144 
  212500    1412.1804   -739.41283    300053.81    16.059157 
  213000    1519.0267   -743.94672    303267.72    15.781382 
  213500    1487.0479   -733.15536    305328.92    16.303693 
  214000     1407.187   -742.91498    295223.73    16.256693 
  214500    1504.4262   -738.86845    298325.08    16.156224 
  215000    1583.2503   -727.33032    321805.39    16.386651 
  215500     1516.126   -741.84099    304719.04    15.943763 
  216000    1463.9477   -750.05326     308591.9    15.597669 
  216500    1471.8321   -744.00564    284856.98    16.429304 
  217000    1326.2906   -736.19118    294036.81    16.412631 
  217500    1607.3873      -744.17    285353.04    16.340708 
  218000    1538.5711   -726.87802    323784.49    16.487789 
  218500    1550.4837   -738.37967    297196.79    16.473748 
  219000    1524.4635   -734.47065    303133.67    16.118914 
  219500    1504.2432   -755.22177    303283.31    15.294991 
  220000    1565.6636   -756.74695    294325.56    15.580638 
  220500    1487.2773   -747.33178    285858.89    16.088885 
  221000    1429.1933   -752.86491    276659.73    15.893415 
  221500    1402.4025   -739.43403    300040.29    16.276205 
  222000    1464.4106   -737.00931    304772.45     16.24103 
  222500    1458.9749    -742.6936     284726.8    16.456734 
  223000    1452.6338   -745.22174    282318.52    16.403531 
  223500    1469.3165   -731.45198    313967.79    16.287266 
  224000    1401.9106    -751.1774    286114.03    15.937182 
  224500    1432.0599   -757.41817    291778.96    15.466698 
  225000    1512.6617   -747.35515     301452.9     15.84783 
  225500    1598.1321   -737.66609    304183.51    16.200564 
  226000    1489.6971   -743.09791    287062.94     16.41695 
  226500    1486.9306   -733.91696     310660.6    16.385783 
  227000    1590.8335   -739.89443    293323.35     16.42623 
  227500    1336.5242   -736.61089    301220.57     16.36664 
  228000    1486.3635   -742.73068    283328.51    16.417133 
  228500    1605.5197   -734.32469    315534.22    16.050084 
  229000    1544.6955   -738.13313    320176.18    15.749355 
  229500    1533.2107   -750.00329    295282.64    15.657453 
  230000    1452.4814   -755.04984    296881.49    15.364832 
  230500    1535.3524   -759.06418    295829.44    15.288762 
  231000    1513.3696   -737.85608    308508.17    16.078447 
  231500    1500.4662    -740.2141    298597.39    16.349417 
  232000     1460.388   -739.80701    290332.88    16.513513 
  232500    1461.9591    -733.3618    320792.36    16.014694 
  233000    1492.3237   -743.78412    302111.25    15.885354 
  233500    1645.3279   -754.25528    289326.51    15.656706 
  234000    1530.4595   -764.39071    290778.63    15.245261 
  234500    1412.4551   -762.81397    288307.47    15.293892 
  235000    1433.6502   -754.53532    304434.01    15.404957 
  235500    1554.3145   -744.20894    315100.13     15.53745 
  236000     1570.521   -740.35647    307118.97    15.979418 
  236500     1568.343   -748.03851    285736.46    16.194803 
  237000    1532.2959   -734.16817    303388.58    16.443997 
  237500     1581.463   -734.30043    303315.28    16.452472 
  238000    1381.6025   -747.66766    270571.31    16.573514 
  238500    1718.1524   -736.53013    300153.32    16.278548 
  239000    1521.0932   -732.19559    312129.17    16.371098 
  239500    1458.4057   -744.09347    286670.28    16.303764 
  240000    1542.5801   -753.08262    279064.22    15.954916 
  240500    1578.3316   -748.60695    293177.19    15.775435 
  241000     1463.245   -759.21945     297741.4     15.26984 
  241500    1543.3048   -762.72333    296254.42    15.085887 
  242000    1445.0772   -762.21877    290033.07    14.988348 
  242500    1499.9406   -755.84453     289980.5    15.532525 
  243000    1426.0466   -737.70657       303346    16.056046 
  243500    1402.1437   -737.55448    300588.62    16.444833 
  244000    1471.3611   -741.72867    289461.44    16.353974 
  244500     1541.249   -731.71955    298546.31    16.885618 
  245000    1628.9698    -737.9136    287359.82    16.903382 
  245500    1601.3087   -734.06664    299909.52    16.963751 
  246000    1414.9861   -726.96105    318466.41    16.872385 
  246500    1476.9304   -730.20268    304166.87     16.86882 
  247000    1452.7927   -738.01479    280844.98    16.884267 
  247500    1438.1601   -737.73296    291754.59    16.825663 
  248000    1519.4938   -735.44132    301712.82    16.494893 
  248500     1494.116   -733.31467    311446.39    15.995649 
  249000    1424.5084   -752.08559    299118.46    15.591102 
  249500     1472.874   -748.94247    283845.05    15.927661 
  250000    1471.7949   -744.87989    284161.91    16.310853 
  250500    1372.6803   -732.43728       313374    16.272709 
  251000    1514.4756   -739.64782     294459.9    16.517006 
  251500    1490.6599   -746.44314    281543.39     16.32437 
  252000    1775.3145   -733.76529    311626.04    16.227617 
  252500    1557.1366   -739.06051    289775.68    16.504161 
  253000    1565.0603   -740.91771    311721.34    15.797715 
  253500    1521.0038   -759.34153    294243.36    15.472441 
  254000     1508.014   -767.53912    281157.71    15.349207 
  254500    1437.8234   -767.05022    264249.85    15.612496 
  255000    1466.4964   -756.04604    292698.59    15.412631 
  255500    1606.1979   -744.14324     307480.2    15.697449 
  256000    1568.6112   -737.78002    311510.17     16.00069 
  256500    1524.9338   -751.57942    291691.34    15.751658 
  257000    1578.7905   -756.40581    287842.08    15.629614 
  257500    1447.5398   -763.06147    297137.33    14.934732 
  258000    1439.8254   -766.15427    295146.51    15.015254 
  258500    1517.8038   -766.16331    295541.71    15.138691 
  259000    1374.5481   -766.02566    295822.47    15.171506 
  259500    1541.2151   -765.01537    288538.26     15.10739 
  260000    1398.0439   -769.95168    284273.28    15.145518 
  260500    1479.7073   -769.00484    274757.88    15.284694 
  261000     1348.529   -770.02853    286544.01    15.064153 
  261500    1521.7515   -767.76535    284771.79    15.065523 
  262000    1584.9187    -768.9951    284292.66    15.172943 
  262500    1402.1928   -766.51162    277492.11    15.128395 
  263000    1422.0263   -764.03451    293161.05    15.034195 
  263500    1458.4866   -763.29857    289151.51    15.020545 
  264000    1441.2447   -764.65835    289555.16    15.002034 
  264500    1529.6779   -747.17808    301177.75    15.775554 
  265000     1615.433   -744.89803    307650.16    15.694284 
  265500    1528.9726   -757.69385    301333.39    15.308212 
  266000    1612.1683    -753.3885    291443.97    15.633413 
  266500    1488.8012   -748.84207    280952.51     16.01597 
  267000    1397.5641   -734.73712    298104.51    16.246873 
  267500    1517.5821   -727.75622    316778.38    16.568383 
  268000    1550.3715   -735.11239    302178.14    16.708906 
  268500    1492.8693   -738.97485    298027.06    16.243892 
  269000    1476.3324   -740.58622    297896.21    16.169263 
  269500    1622.5322   -740.11839     294724.6    16.520945 
  270000    1487.0271   -735.75031    310159.77    16.283329 
  270500    1476.9676   -737.42226    295298.77    16.369519 
  271000    1674.7751   -737.10377    304744.84    16.527525 
  271500    1532.6053   -731.95556    304080.09     16.79507 
  272000    1560.2615   -734.71365    293067.16    16.807009 
  272500    1523.9729   -735.22908    293597.62    16.757051 
  273000    1488.2741   -737.07236    301893.21    16.671963 
  273500    1512.9681   -729.99221    305059.29    16.782163 
  274000    1420.1045   -731.83319     295771.2    16.708327 
  274500    1503.3995   -738.20361    304441.87     16.00578 
  275000    1428.4852   -749.47976    305616.24    15.577046 
  275500    1349.2496   -755.68698    306218.32     15.31848 
  276000    1593.6509    -754.3349    291173.89    15.676573 
  276500    1514.2796   -759.10185    275066.38    15.692765 
  277000    1500.0285   -748.20039    295920.13    15.717439 
  277500    1547.1392   -733.46701     317712.3    15.811854 
  278000    1526.7866   -736.85576    324748.12    15.537273 
  278500     1549.151    -753.6778    307743.93    15.313633 
  279000    1563.6226   -759.04633    303483.38    15.241884 
  279500    1451.0194   -757.73553    306667.41    15.150774 
  280000    1539.0925   -763.18009    300213.73    15.123518 
  280500    1385.0921   -756.12197    292137.13    15.415898 
  281000    1561.2906   -765.74435    294960.53    15.108186 
  281500     1295.165   -762.69175     299926.9    15.001023 
  282000    1591.7348   -773.17433    283144.49    15.120214 
  282500    1400.4349   -772.35844    281235.36    15.168376 
  283000    1555.4657   -768.85983    281816.43    15.216412 
  283500    1540.3889   -764.04288    285298.55    15.075046 
  284000    1499.6315   -774.05295    266452.87    15.067905 
  284500     1640.318   -773.73495    275064.97    15.122811 
  285000    1459.4913   -764.14049    291502.98     15.08809 
  285500    1561.4036   -767.10955    283642.42    15.020457 
  286000    1399.8323   -762.27739     290438.4    15.037175 
  286500    1582.9047   -759.49949    288789.23    15.501084 
  287000    1470.9376   -755.27337    307504.23    15.205065 
  287500    1467.3239    -743.2828    315232.58    15.527499 
  288000    1502.5569   -747.58496    312650.91    15.544257 
  288500    1584.6481   -756.88178    299615.19    15.522048 
  289000    1454.8412   -763.11799    286592.01    15.274867 
  289500    1423.3045   -763.49956    278203.89    15.411801 
  290000     1395.233   -760.81207    279748.57    15.607379 
  290500    1398.9939   -745.34715    296863.01    15.933023 
  291000    1539.7041   -737.76827     297489.2    16.016792 
  291500    1589.1494   -739.22764    295717.83    16.344495 
  292000    1545.4349   -734.90427    297688.44    16.563472 
  292500     1428.171   -741.45202    296353.76    16.173773 
  293000    1447.0145   -733.91748    304562.91    16.448345 
  293500    1490.7339   -744.96671    286426.26     16.14068 
  294000    1427.5973   -744.37848    309544.48    15.721138 
  294500    1415.6218   -744.83266    308967.62    15.590112 
  295000    1608.3405   -763.20218    298991.57    15.104021 
  295500    1435.1999   -765.08006     294791.9    15.170531 
  296000    1479.6028   -760.03953    294319.22    15.235902 
  296500    1611.9884   -764.74057    289805.99    15.234003 
  297000    1558.1538   -767.06374    287484.51    15.312762 
  297500     1537.013   -762.69955    288572.05    15.466619 
  298000    1510.8987   -767.73947    292850.57    15.090762 
  298500    1538.5188   -765.25505    300910.71    15.069591 
  299000    1569.0562   -763.59153    303220.72    15.104962 
  299500    1630.5713   -761.97263    312091.56    15.095659 
  300000    1660.5613   -751.40286    313725.06    15.403446 
  300500    1600.6187    -742.3624    315683.74    15.683286 
  301000    1534.6509   -745.09374    289848.74    16.057755 
  301500    1435.8002   -742.24323    284191.28    16.464893 
  302000    1453.5978   -730.21902    314812.05     16.15923 
  302500    1551.8948   -749.64042    300309.02    15.620176 
  303000    1657.7101   -758.32027     298656.1    15.375087 
  303500    1442.7252   -761.01741     292976.7    15.265481 
  304000    1493.2907    -756.0675    285182.41    15.638433 
  304500     1492.775   -761.18069    278499.15    15.479434 
  305000    1452.6652   -760.99655    295183.52    15.381039 
  305500    1588.2194   -756.99876    304634.25    15.370233 
  306000    1494.1851   -743.70724    323422.58    15.494536 
  306500    1666.8885   -739.96953    319623.39    15.664043 
  307000     1516.203   -743.21559    311466.52    15.608842 
  307500    1584.3336    -739.7318    293490.57    16.150405 
  308000    1517.4512   -742.53926    300017.47    16.117812 
  308500    1413.5962   -752.39658     308716.5    15.292268 
  309000    1596.4223   -746.53171    301792.47    15.688012 
  309500    1402.7282   -742.84886    303841.96     15.86566 
  310000    1544.9697   -745.92648       284436    16.164865 
  310500    1454.7264    -746.4748    290748.47    15.942455 
  311000    1483.0443    -758.4222    294283.43    15.384897 
  311500    1495.2659   -757.67952    283445.98    15.662941 
  312000    1312.7128   -749.70856    310330.16    15.234846 
  312500    1417.0076   -747.00327    318051.59    15.476151 
  313000    1471.6553   -752.99829    311726.36    15.229215 
  313500    1396.9902   -750.93881    313113.16    15.384987 
  314000    1471.6312   -761.21957     295077.4    15.439401 
  314500    1510.6072   -751.13006    286230.38    15.922578 
  315000    1587.8765   -746.17848     288204.5    16.036603 
  315500    1520.3854   -744.68941    309875.14    15.639174 
  316000    1439.4546   -743.99945    316358.01    15.316808 
  316500    1452.7039   -748.08744    319493.03    15.329512 
  317000    1498.7395   -757.78001     309383.3    14.986545 
  317500    1587.1773   -768.62892    299392.09    15.025304 
  318000    1522.3985   -766.50812    293433.28    15.077154 
  318500    1485.0664   -768.18944    282206.71    15.052841 
  319000    1349.2654   -770.24883    281307.51    15.099483 
  319500    1373.5823   -770.42887    273849.87    15.153425 
  320000    1502.5963   -767.26355    290417.45    15.094208 
  320500     1400.114   -764.44985    292878.62    15.135725 
  321000    1535.5888   -762.63028     294480.6     15.25988 
  321500     1496.977   -761.64178    292927.13    15.248666 
  322000    1447.1085   -767.17218    287356.87    15.070801 
  322500    1597.3119   -762.92578    295597.64     15.15327 
  323000    1462.0256   -769.53888    277623.77    15.331756 
  323500    1496.5817   -762.44024       291693    15.374904 
  324000    1531.5778   -757.64657    313256.26    15.179005 
  324500     1562.801   -756.89157    312965.53    15.137031 
  325000    1424.6394    -748.6771    306974.71    15.625761 
  325500    1472.8954   -745.37512    298555.73    16.044893 
  326000    1488.5628   -737.94638    290214.52    16.592483 
  326500    1526.0776   -728.83107    318984.28    16.349443 
  327000    1555.5329   -744.10425    280857.57    16.543431 
  327500    1582.2491   -749.57044    302693.58    15.634378 
  328000    1449.9315   -757.63734    303566.64    15.247432 
  328500    1434.6078   -741.22684    317418.07    15.537083 
  329000    1509.5355   -743.27559    309053.61    15.689609 
  329500     1428.994   -753.87059    279179.74    15.909669 
  330000    1517.6788   -741.63047    300842.74    16.029462 
  330500    1430.5527     -728.276    331004.03    15.951784 
  331000    1499.6917   -742.77073    296280.13    16.051203 
  331500    1526.1349   -739.70783    295304.77    16.277689 
  332000    1574.8741   -733.84742    295969.06    16.510965 
  332500    1558.2718   -746.17413    285472.49    16.248639 
  333000    1468.8563    -728.5992    322636.28    16.068514 
  333500    1447.1645   -745.79657    296885.49    15.799015 
  334000    1542.5618   -764.95045    287461.69     15.32331 
  334500    1448.2368   -761.46713    291663.47    15.439328 
  335000    1443.5539     -754.463    298449.65    15.526974 
  335500    1474.9425   -760.98482    306336.36    15.137079 
  336000    1444.6588   -758.30635    312130.89    15.112373 
  336500     1599.858   -754.55246    302351.16    15.373304 
  337000     1654.156   -764.76636    310394.99    15.088322 
  337500    1450.1647    -753.1719    314647.05    15.282907 
  338000    1528.9736   -761.26649    304507.08    15.046676 
  338500    1414.4876   -761.05173    305957.18    15.042229 
  339000    1481.8533    -759.8042    307397.45     15.05673 
  339500    1656.8238   -755.17873     317219.4    14.936657 
  340000     1490.205   -765.25826    302938.85    15.045801 
  340500    1471.3235   -755.12377    309276.85    15.166557 
  341000    1375.6889   -764.55553    299391.26    15.095016 
  341500    1468.9012    -757.7556    288070.29     15.51578 
  342000    1582.9862   -764.23426    283880.16    15.397555 
  342500    1515.6477    -761.3273    284229.36    15.462028 
  343000    1426.9603   -760.91001    294348.96     15.40604 
  343500    1424.1645   -753.50573    309275.81    15.331373 
  344000     1541.448   -746.75467    320183.69    15.293744 
  344500    1526.0554   -736.34698    324630.58    15.596392 
  345000    1526.8324   -744.99965    302847.92    15.851774 
  345500    1522.5391   -740.41937    291541.48    16.342991 
  346000    1573.3995   -722.34845    321231.02    16.767927 
  346500    1487.7857   -731.06973    300733.72    16.868621 
  347000    1394.4413   -733.82136    289491.65    16.916672 
  347500    1468.3586   -733.03846    295047.82    16.867714 
  348000    1602.1391   -726.89646    301110.06    16.850333 
  348500    1625.5865   -724.21673    321512.83    16.669139 
  349000    1392.7371    -739.2965    284474.04     16.64803 
  349500    1550.3983   -744.76446    285065.73    16.170999 
  350000      1437.82   -747.02734    297630.19    15.807865 
  350500    1464.8725   -741.93485    319060.93    15.514396 
  351000     1619.021   -748.78749    329753.98    15.083686 
  351500    1453.9525   -758.14775    304136.43    15.087268 
  352000     1530.797   -760.58187    297476.58    15.137934 
  352500    1327.1449   -766.01695    286990.56    15.215389 
  353000    1491.9651   -769.03821     274637.4    15.496589 
  353500    1477.2469   -762.63614    290890.64    15.053318 
  354000    1532.6956   -768.75378    287214.72    15.093438 
  354500    1451.4427    -762.5807    284538.11    15.499617 
  355000    1401.8862   -749.40297    309450.56    15.521629 
  355500    1515.0891    -744.2421    308761.35    15.760411 
  356000    1549.9044   -743.77841    296357.22     15.99905 
  356500    1349.7499   -746.61469    297549.75    15.572864 
  357000     1505.662   -752.83713    299306.38    15.277812 
  357500    1557.7498   -754.78853    312233.83    15.261769 
  358000    1565.9474   -758.84178    312033.14    15.042081 
  358500    1433.6041   -754.70252    312858.64    15.071627 
  359000    1544.4194   -755.75834    319152.38    15.078354 
  359500    1601.4976    -760.2624    311014.46     15.06502 
  360000    1585.4027   -758.89396    308255.75    15.035645 
  360500    1542.1913   -760.48885    307615.84    15.106342 
  361000    1500.3429   -762.26957    302014.31    15.079828 
  361500    1530.0848   -762.03604    293449.39    15.455385 
  362000    1593.1173   -764.03901    288497.01    15.441922 
  362500    1523.1252    -771.2821    278638.84    15.269346 
  363000    1481.2959   -770.39704    282727.34    15.179379 
  363500    1617.2556   -770.55766    289731.83    15.065114 
  364000    1590.5073   -772.62744    289031.28    15.094527 
  364500    1541.3388   -762.56397    305191.09    15.065992 
  365000    1386.4609   -759.38427     311637.3    15.012944 
  365500    1455.0058   -753.26029    329300.26    14.982865 
  366000    1615.1439   -758.17101    318437.82    14.999238 
  366500    1615.6256   -747.77909    317559.29    15.087254 
  367000    1544.1562   -752.47722    324384.91    15.187642 
  367500    1580.1687   -753.58752     295266.4    15.614512 
  368000    1536.9589    -754.4592    285610.46      15.6676 
  368500    1583.6346   -761.12805    287405.46    15.483564 
  369000    1573.1349   -746.35164    299631.96    16.119221 
  369500    1557.5295   -728.05215    301481.92    16.721222 
  370000    1580.8885   -732.52889    299423.39     16.85439 
  370500    1459.3187   -737.90453    287022.07    16.863923 
  371000    1464.4246   -738.83873    274681.15    16.999027 
  371500    1545.0799    -734.3968    297998.27    16.950137 
  372000    1534.1994   -730.08231    311490.59    16.897717 
  372500    1490.9924   -728.12349     317789.3    16.839277 
  373000    1570.6302    -736.9295    298118.54    16.887281 
  373500    1478.7987   -731.52039    292811.32    16.925519 
  374000    1478.2515   -734.83997     287116.1    16.829468 
  374500    1573.0486   -729.71409    308933.28    16.782211 
  375000    1628.3474   -741.87148     275506.6    16.903295 
  375500     1431.395   -737.63346    284496.47    16.959352 
  376000    1553.0133   -732.36885    303894.52    16.736739 
  376500    1553.7138   -737.40442    312698.94    16.075837 
  377000    1478.1078   -739.99481    304004.25     15.97719 
  377500    1442.3294   -749.09911    298828.48    15.637583 
  378000    1528.7763   -727.98807    310084.57    16.281182 
  378500    1745.2727   -740.94279    288773.24    16.502649 
  379000     1542.849   -745.80188    302369.62    15.700845 
  379500    1577.4685   -744.77246    302010.69    15.808648 
  380000    1556.6354   -738.57208    303281.78    16.117401 
  380500    1501.6867   -735.58752    294729.02    16.714701 
  381000      1546.63   -733.37332    306990.49    16.803829 
  381500    1502.7787   -734.89485     298716.8    16.728299 
  382000     1393.466   -743.23244    283690.54     16.88886 
  382500    1480.2875   -734.14295    299627.03    16.906119 
  383000    1540.1039    -730.7469    301318.45    16.782821 
  383500    1423.3434   -738.60689    284282.67    16.955217 
  384000    1537.8431   -728.66981    318052.48    16.764571 
  384500    1551.5359    -723.8319    321579.88    16.741358 
  385000    1576.8233   -730.58651    308997.97    16.789069 
  385500    1514.1494   -735.13784    292543.13    16.922806 
  386000    1522.2198   -736.96367    289011.06     16.87056 
  386500    1416.1621   -730.91625    305947.54    16.716363 
  387000    1552.8494    -727.7138    310655.57    17.007806 
  387500    1556.0517   -731.38665    301681.61    16.932035 
  388000    1453.7344    -738.1199    296976.87    16.861284 
  388500    1523.1834   -733.49654    297762.02    16.885478 
  389000    1600.5859   -735.81582     290964.8    16.722742 
  389500    1489.4053   -720.87763    312309.61    16.876564 
  390000    1524.6272   -738.50684     297735.7    16.420061 
  390500    1522.0392   -736.61667    303977.47    16.166042 
  391000    1459.0242    -752.5587     304909.4    15.484659 
  391500    1502.1682   -757.50428    303025.33       15.257 
  392000    1526.2335   -764.48864    298572.39    15.142583 
  392500    1486.2151   -766.99997    293280.89    15.146203 
  393000    1562.5486   -767.30451    289989.56    15.261963 
  393500    1488.5037     -763.015    274810.41    15.510612 
  394000    1707.7824   -763.31052     287899.5    15.281563 
  394500    1560.7613   -759.74809    302194.62    15.346131 
  395000    1580.1691   -754.66932    307334.55    15.291238 
  395500    1492.9763   -739.12239    332428.75     15.40229 
  396000    1552.0067    -752.8152    311202.21    15.237825 
  396500    1660.2697   -762.98436    305290.45    15.038845 
  397000    1472.7361   -761.56105    304599.99    15.044255 
  397500    1366.9808   -767.45283    292989.24     15.06076 
  398000    1608.1075   -767.57991     286459.9    15.092947 
  398500    1485.7781    -772.4519    278328.27    15.130879 
  399000     1498.357   -766.55201     285201.8    15.099974 
  399500    1504.5429   -764.46673     295571.3    15.253009 
  400000    1508.6476   -758.25876    298584.92    15.398999 
  400500    1628.6725   -764.18723    297781.31    15.039194 
  401000    1540.1287   -754.26732    312201.79    15.351221 
  401500    1482.3207   -751.91592    314716.08    15.298759 
  402000    1521.0354   -751.75374    337863.54    14.880472 
  402500     1429.891   -755.69856    319322.14     14.96984 
  403000    1428.0188   -762.46097    304991.86    15.027986 
  403500    1440.0021   -759.30758     301014.7    15.147708 
  404000    1507.4073   -755.48685    308268.51    15.231392 
  404500    1387.8506   -748.48291    308328.12    15.602783 
  405000    1558.5703   -753.41173    277175.67     16.05519 
  405500    1414.9026    -750.0051    284676.08    16.019622 
  406000    1508.7331   -744.38866    294478.31    16.209898 
  406500    1454.0938   -730.31481    304901.42    16.643925 
  407000     1555.474   -732.87821    301966.39    16.778549 
  407500    1463.8641   -734.56873    305301.74    16.694206 
  408000    1446.3611   -731.75036    304229.72    16.611165 
  408500    1392.9635   -738.20248    296472.19     16.51111 
  409000    1502.2693   -728.11582    310920.68    17.075752 
  409500    1533.9766   -733.74953     294464.1    16.998642 
  410000    1544.0788   -734.41669    296452.07    16.835455 
  410500    1498.3434    -735.9403    295538.23    16.726335 
  411000    1510.1507   -726.33899    309468.18    16.770255 
  411500    1411.4844   -741.72511    285908.54    16.414033 
  412000    1420.5922   -732.63922    302118.52    16.372518 
  412500    1611.7531   -730.17317    317998.67    16.342597 
  413000    1495.9721   -735.61857    303054.14    16.456319 
  413500    1397.9565   -731.49327    302503.72    16.763134 
  414000    1456.1615   -734.90535    303349.91     16.65891 
  414500    1557.6496   -739.21138    275824.84    17.075062 
  415000    1517.4227   -733.23023    303348.64    16.953018 
  415500      1496.63   -729.52763    308570.02    16.835335 
  416000    1551.8104   -732.68355     299259.1    16.858068 
  416500    1454.6082    -736.4353    294786.61    16.644684 
  417000    1612.9021   -737.74889    319271.04    16.062899 
  417500    1561.3889   -737.39627    303717.24    16.030678 
  418000    1585.0763   -741.27463    298814.69    15.975428 
  418500    1493.9509   -754.63758    294824.59    15.533282 
  419000     1396.179   -763.28213    298065.37     15.06388 
  419500    1579.4732   -755.99902    305198.98    15.425794 
  420000    1441.1196   -733.24007    323763.27    15.639998 
  420500    1455.5284   -738.44248    328092.18    15.385793 
  421000    1488.2967   -749.73559    309790.32    15.300695 
  421500     1490.228   -757.86223    303542.34    15.386062 
  422000    1498.4296   -761.07011    296695.06    15.016715 
  422500    1578.2351   -756.91917    291850.76    15.452968 
  423000    1458.0068   -765.06168    293028.45    15.081305 
  423500    1438.8869   -752.73791    306602.89     15.38274 
  424000    1657.2825    -757.6804    310172.92    15.195045 
  424500    1573.3902   -759.29112    304874.23    15.208972 
  425000    1585.0061   -763.03682    296839.73    15.084439 
  425500    1529.7269   -755.86129    302544.59    15.453968 
  426000    1585.6825   -753.32579     317542.9    15.026905 
  426500    1546.9326   -757.04387    315027.59    15.218807 
  427000    1557.9313   -753.38071    319993.28    15.193427 
  427500    1575.0128   -752.51763    317276.75    15.315208 
  428000    1360.2917   -764.17256    301296.19    15.107528 
  428500    1508.4134   -771.24891    288200.05    15.121069 
  429000    1403.6102    -763.8402    284993.41    15.392281 
  429500    1365.6516   -760.06179    293290.79    15.236041 
  430000    1466.3634   -759.04233       306482    15.078845 
  430500    1527.0806   -737.68992    314210.55    15.717692 
  431000    1453.9742    -749.9715    286928.33    15.843258 
  431500    1466.3492   -767.87627    285193.91    15.270595 
  432000    1424.5651   -761.49706    292246.38    15.337621 
  432500    1557.0849   -757.39113    299875.11    15.502943 
  433000    1415.6088   -755.60752    319313.11     15.18927 
  433500     1549.218   -762.71749     302387.4    15.095299 
  434000    1490.2999   -762.20361     299835.7    15.128413 
  434500    1523.2272   -759.35475    297641.51    15.271628 
  435000    1502.2129   -761.22708    296060.51    15.212432 
  435500    1512.2432   -759.91456    292125.43    15.214554 
  436000    1631.2296   -765.92779    290252.69    15.206248 
  436500    1560.5934   -764.80023    289040.74    15.160571 
  437000    1469.2003   -756.25248     304361.8    15.173139 
  437500    1647.0181   -759.84507    304917.64    15.135173 
  438000    1483.0397   -742.49184    302903.81    15.868293 
  438500    1484.7637    -747.2565    304096.49     15.66985 
  439000    1449.2225    -737.3751       303920    16.005337 
  439500    1424.2681   -738.59185    291904.61    16.593818 
  440000    1543.9946   -731.10393    298662.83    17.051522 
  440500    1493.9597   -727.18787    308562.25    16.893484 
  441000    1503.7512   -730.77792    297381.78    16.747401 
  441500    1409.3792   -734.97402    286005.49    16.882308 
  442000    1504.8807   -733.99486    298344.26     16.77476 
  442500    1557.8747   -725.80707    325568.14    16.807804 
  443000    1622.0477   -732.43985    299626.31    16.834419 
  443500      1593.68   -740.06973    280581.37      16.8671 
  444000    1518.3672   -734.12978    305675.99    16.503514 
  444500    1412.5697   -722.32705    327099.94    16.543697 
  445000    1478.1522    -731.4818    303464.74     16.73362 
  445500    1349.3647   -739.61917    282332.84    16.858682 
  446000    1448.7999    -734.0435    296842.62    16.789851 
  446500    1466.5299   -735.47988    299006.46    16.756862 
  447000    1377.6166   -731.57811     299743.6    16.729609 
  447500    1432.5101   -730.54295    312796.62    16.370337 
  448000     1663.458   -731.98494    312264.53    16.626546 
  448500    1529.6201   -734.93152     307277.4    16.295005 
  449000    1534.3161   -753.09113    289888.17    15.626231 
  449500    1642.9691   -744.02223     303252.7    15.909149 
  450000    1487.9179   -731.63135    304306.47    16.414091 
  450500    1547.5619   -734.83467    292507.73    16.507391 
  451000    1474.3013    -738.5831    287333.53    16.708299 
  451500    1506.1271   -731.43334    300050.56    16.788859 
  452000    1418.0157   -724.88007    322453.28     16.69306 
  452500    1444.1527   -734.81878    310569.22    16.150335 
  453000    1330.9037   -742.62962    285808.28    16.229033 
  453500    1651.4828   -734.62493    301926.96    16.746449 
  454000    1698.8069   -730.24166    308677.16     16.76515 
  454500    1464.9149    -732.2109    294745.33    16.984245 
  455000    1601.1653   -739.12335    290695.83    16.545732 
  455500     1420.694   -748.90275     292236.3    15.821003 
  456000    1498.2989   -752.11801    308691.86    15.429868 
  456500    1399.1821   -760.93856    307973.97    15.100149 
  457000     1443.055   -758.14448    298114.47    15.331038 
  457500    1476.0416   -752.73555    304173.91    15.431093 
  458000    1333.1793   -764.26867    289431.14    15.126666 
  458500    1427.2961   -754.23888    293704.96    15.452172 
  459000    1466.8085   -760.22841    294132.18    15.389634 
  459500    1491.2899   -753.48665    293983.15     15.49749 
  460000    1376.0116   -747.07073    289992.28    15.850577 
  460500    1509.8719   -733.68847    319171.66    16.030754 
  461000     1498.867   -734.90842    304175.58     16.33254 
  461500    1429.4608   -735.06879    300288.52    16.753347 
  462000    1369.3527   -732.17528    293960.59    16.756172 
  462500    1553.4283   -738.23843    286976.12    16.825102 
  463000    1498.2556   -736.14621    286463.62    16.863475 
  463500    1607.8182    -731.8231    302460.79    16.852781 
  464000    1546.9266    -733.1775    302600.84    16.773235 
  464500    1600.0367   -723.52973    322765.91     16.76894 
  465000    1576.9919   -735.41787    295655.01     16.99459 
  465500    1410.9531   -734.93331    296951.75    17.016471 
  466000    1456.4194   -721.89569    323074.91    16.831992 
  466500    1482.4283   -736.97365     294588.1      16.6452 
  467000    1520.0711   -740.99115    295020.14    16.284348 
  467500    1366.8199   -735.59944     287405.1    16.765996 
  468000    1451.0569   -737.99216    296885.49    16.664456 
  468500    1559.6475   -731.90896    302942.17    17.020836 
  469000    1512.2178   -729.50875    317713.57    17.068592 
  469500    1532.4978   -731.83303    305215.86    16.940817 
  470000     1503.396   -729.69467    312036.77    16.781616 
  470500    1484.0416   -734.66872    299983.79    16.573224 
  471000    1505.9255   -733.47963    301949.07    17.010793 
  471500    1517.0317   -737.24381    286159.29    16.735076 
  472000    1493.1184   -726.40593    318170.06    16.946452 
  472500     1546.875   -740.89904    285813.19    16.554122 
  473000    1521.7805   -736.78604    295370.05    16.687101 
  473500    1647.9889   -721.65861    322844.68    16.776655 
  474000    1487.7905   -727.57106    317808.72    16.765913 
  474500    1478.7524   -733.46001    294225.65    16.889364 
  475000    1561.6628   -737.98416    286822.65    16.886609 
  475500    1552.1022   -726.18638    320428.11    16.688055 
  476000    1357.9062   -725.52448    314877.89    16.826477 
  476500    1509.3585   -732.48013    305971.73    17.049897 
  477000    1574.3759   -741.56732    286190.11    16.506264 
  477500    1553.3355   -735.15733    291359.71    17.095533 
  478000    1467.8865   -732.07043     300978.7    16.868726 
  478500    1594.5776    -719.9907    330926.31    16.799553 
  479000    1411.1092   -734.13653    302036.96    16.787759 
  479500    1483.8136   -735.41261     296444.5     16.82722 
  480000    1540.0598    -732.4686    303798.12    16.721493 
  480500    1349.9322   -740.66349     299074.3     16.20025 
  481000    1456.9056   -748.22116    303932.37     15.54832 
  481500    1571.2806   -756.82992    305958.73    15.299424 
  482000    1568.8691   -750.21327    317350.28    15.437642 
  482500     1452.267   -752.34128    302179.98    15.452836 
  483000    1487.6743   -762.92186    295787.37     15.23623 
  483500    1472.2891   -760.62404       293388     15.32147 
  484000    1513.5787     -768.237    275476.57    15.355153 
  484500    1518.6051   -763.65146     277830.7    15.419963 
  485000    1381.3656   -758.73543    288976.63    15.371597 
  485500    1503.2843    -764.8627     287839.8    15.033028 
  486000    1476.8032   -760.16111    291118.32    15.379586 
  486500    1579.0688   -757.26991    299143.99    15.242106 
  487000    1396.9925   -753.16995    307245.11    15.328544 
  487500    1486.5172   -753.41215    313160.21    15.273707 
  488000    1469.5106   -757.11962    303396.05    15.272735 
  488500    1531.4093    -763.5538    297759.07    15.182752 
  489000    1560.9456   -758.65269    290758.34    15.331744 
  489500    1699.4938    -754.6878    278341.98    15.825037 
  490000    1466.4208   -738.76683     305766.9    15.860565 
  490500    1622.2672   -744.26403    319232.49    15.436946 
  491000    1687.9084    -749.6908    313623.95      15.2735 
  491500    1549.3361   -764.30553    306707.76     15.10085 
  492000    1555.0913   -761.65984    296614.45    15.062256 
  492500    1493.5853   -770.50524    284299.61    15.080586 
  493000    1476.0915   -762.03369     282920.2    15.410537 
  493500    1405.9647    -746.0287    296449.46    15.704355 
  494000    1484.6175   -738.12251    308363.77    16.038766 
  494500    1471.7984   -733.62585    296496.35    16.400315 
  495000    1544.2904   -733.46987    295088.86    16.901724 
  495500    1561.6868   -725.08299    323010.03    16.866341 
  496000    1395.0893   -738.49427    291271.57    16.849489 
  496500      1467.47   -737.10619    296244.77    16.743506 
  497000    1502.1566   -735.69372    306944.44    16.348053 
  497500    1470.0648   -735.42391    299549.78    16.607006 
  498000    1534.5168   -730.44801    316778.05    16.393433 
  498500    1600.2303   -731.59843    306886.39    16.550556 
  499000    1445.1226   -737.23219    290520.96    16.417457 
  499500    1408.8337   -740.20389    294146.07    16.315178 
  500000    1447.5178   -730.22099    309735.74    16.950715 
  500500    1660.3482   -726.76297    302375.95    16.879372 
  501000    1530.1123   -734.89482    291730.33    16.870197 
  501500    1375.6685   -727.61469    307670.61    16.897586 
  502000    1374.9828   -729.65423    301727.22    16.793868 
  502500    1573.9923   -735.96724    289117.98    16.780315 
  503000     1497.471   -728.26158    314965.26    16.912723 
  503500    1497.2202   -738.05144    285851.65    17.000917 
  504000    1561.9509   -737.98881     291662.9    16.851238 
  504500    1368.8142   -725.69259    319650.31    16.709891 
  505000    1562.5515   -735.00112    294299.07    16.778404 
  505500    1529.6232   -737.92685    291887.43    16.501337 
  506000    1611.9081   -730.98927    309072.62    16.610513 
  506500    1583.5426   -726.51811    317449.83    16.833678 
  507000     1494.269    -734.2402    293947.82    16.867716 
  507500    1455.5957   -738.68652     290246.4    16.666908 
  508000      1573.17   -736.87071    302636.21    16.489751 
  508500    1477.8767   -726.49784    322201.03    16.465761 
  509000    1535.0247   -733.88532     296464.3    16.652896 
  509500     1501.777   -735.54987    301477.69    16.607597 
  510000    1649.0542   -737.53121    312545.25    16.033876 
  510500    1428.9233   -736.74049    305733.98     16.15314 
  511000    1506.4086   -741.75878    290500.75    16.185365 
  511500    1360.9873    -730.3544    314721.53    16.461027 
  512000    1483.1946   -732.47525     306819.2     16.51926 
  512500    1491.3677   -731.39225    317581.69    16.336888 
  513000    1550.3305   -735.76037    300566.59    16.425402 
  513500    1578.0569   -733.87088    285645.32    17.002408 
  514000    1598.2207   -730.32302    307832.35    16.721318 
  514500    1580.0239   -734.70463    298155.18     16.16104 
  515000    1345.4215   -741.59679    298380.85    16.070894 
  515500    1437.3042   -732.09339    320035.23    16.132115 
  516000    1499.2711   -740.79047    283431.75    16.675365 
  516500    1451.5129   -741.94137    298051.27    16.194591 
  517000    1405.0123   -734.59968     312027.5    16.075939 
  517500    1477.0178   -751.91834    271087.26    16.382437 
  518000    1540.3295   -742.15401    301319.24    15.952899 
  518500    1564.2581   -744.10298    309979.94    15.852047 
  519000     1441.411   -760.05619    299803.57     15.25569 
  519500    1536.6884    -772.0568    286633.95    15.067439 
  520000    1444.4884   -767.59787    284885.35    15.129517 
  520500    1486.1666   -767.10575    287646.36    15.139875 
  521000    1584.2748   -762.91852    291146.76    15.320492 
  521500    1465.8652   -754.65324    309082.87    15.164919 
  522000    1497.9391   -748.24393    317977.13    15.279209 
  522500    1448.6658   -756.08217    311704.81    15.296221 
  523000    1672.2882   -755.45991    318595.49    15.197422 
  523500    1395.5889   -750.13247    319360.24    15.169524 
  524000    1543.5172   -758.35826    310187.92    15.214541 
  524500    1589.7533   -759.62441    299787.11    15.362082 
  525000    1437.4014   -765.59464    291628.69    15.046892 
  525500    1323.5581   -760.95487    284225.96    15.533894 
  526000    1442.6798   -758.70559    296586.06    15.054318 
  526500    1509.6269   -762.85746     300257.7     15.03428 
  527000    1416.6489   -761.15431    295287.15    15.213147 
  527500    1480.6849   -751.64531    298895.36    15.715487 
  528000    1552.7618   -746.40473    296128.68    15.771168 
  528500    1458.1003   -744.84071    277713.21    16.444885 
  529000     1480.635   -730.72807    302752.79    16.674799 
  529500    1496.5719   -733.36886    299624.92    16.711401 
  530000    1570.3676   -733.82673    314461.27     16.09637 
  530500    1648.7263   -737.22496    299868.67    16.143454 
  531000    1429.3759   -746.10701    313360.87    15.483564 
  531500    1636.2572    -762.8437    300667.14    15.079234 
  532000     1514.509   -758.29728    296833.49    15.350557 
  532500    1465.1978   -759.09863    297811.35    15.409037 
  533000    1589.7002   -757.94306    312245.99    15.142306 
  533500    1545.9829    -752.4809    306629.23    15.268184 
  534000    1406.5065   -744.47565    315850.97     15.46526 
  534500    1464.1953   -743.13673    314184.04    15.562765 
  535000    1475.4121   -748.36186    299741.47    15.796603 
  535500     1715.988   -767.02762     284911.5    15.330541 
  536000    1561.3203   -758.43247    294519.32    15.399902 
  536500    1523.2209   -764.99996    297472.71    15.085607 
  537000     1458.319   -758.69908    299877.94    15.140711 
  537500    1544.8723   -759.88842    287837.31    15.391993 
  538000    1498.4227   -751.34679    309706.91    15.272345 
  538500    1436.1537   -736.77254    327388.33    15.510426 
  539000    1585.3608   -743.48567    308085.68    15.710012 
  539500    1454.7337   -745.93197    298229.55    15.737933 
  540000    1434.3847   -749.32752    268867.27    16.357682 
  540500    1627.1098   -738.23089    302834.76    16.285472 
  541000    1529.9725   -736.49937    295856.24    16.486104 
  541500    1328.0022   -738.96328    293863.52    16.936171 
  542000    1459.3059   -728.42332    319002.38    16.606899 
  542500    1556.5224   -740.50236    298160.58    16.148185 
  543000     1554.931   -754.69098    282358.46    15.743794 
  543500    1386.4606   -748.45407    295236.36     15.86879 
  544000    1395.8409   -732.36276    318473.09    16.091999 
  544500     1449.772   -737.62099    292256.68    16.890364 
  545000    1484.7164   -734.58149    295853.08    16.767335 
  545500    1565.7785   -733.70568    301963.18    16.687184 
  546000     1525.453   -727.88444    328722.57    16.352054 
  546500    1591.1206   -735.42867    291997.19     16.51755 
  547000    1656.4602   -737.91642    301386.95    16.609689 
  547500    1565.8589    -729.8126    316577.23    16.498468 
  548000     1430.994   -735.92239    296582.96    16.642271 
  548500    1504.6367   -748.51166    278986.27    16.290697 
  549000    1626.8205   -737.65796     311318.5    16.402487 
  549500    1619.8934   -734.55462    303445.88    16.592401 
  550000    1378.4389   -737.46235    295959.45    16.371248 
  550500    1480.7467   -728.74998    309375.98    16.821026 
  551000    1659.1065   -730.27145    311415.89    16.559414 
  551500    1573.2021   -739.90326     299568.2    16.136344 
  552000    1606.4501   -741.88022    305154.43    15.769343 
  552500    1599.1831   -762.90368    298674.95    15.157478 
  553000    1452.8994   -760.53114    295481.57    15.318473 
  553500     1552.865   -758.11423    290363.47    15.715756 
  554000    1384.6226   -743.64477    291115.94    16.063666 
  554500    1611.5335   -757.12507    280599.45    15.724591 
  555000    1264.4849   -749.31108    293999.86     15.78659 
  555500    1477.5756   -742.32153     309563.3    15.720073 
  556000    1519.8065    -735.4794    329469.41    15.671721 
  556500    1457.5968   -749.42024    310488.44    15.459245 
  557000    1541.8917    -761.4425    299871.96    15.183512 
  557500    1553.9357   -772.19616    275902.05    15.186673 
  558000    1377.9745   -766.44314    282904.57    15.163312 
  558500    1669.7822   -764.89308    291949.52    15.108945 
  559000    1525.5129   -763.34906    303231.83    15.073921 
  559500    1429.7184   -760.49668    308262.81    15.110883 
  560000    1587.3149   -763.11582    303353.33    15.086135 
  560500    1406.8289   -759.09678    299770.52     15.14652 
  561000    1389.0747    -766.0933    292823.57    15.222511 
  561500     1642.716    -756.6116    307650.87    15.244529 
  562000    1435.9465   -750.23946    319996.89    15.176195 
  562500      1530.53   -751.42028    314618.39    15.339708 
  563000    1442.8331   -765.17061    304465.64    14.918382 
  563500    1540.2014   -762.09081    295171.35    15.098857 
  564000    1463.2621    -755.0494    295284.88    15.400784 
  564500    1404.0587   -745.47498    298271.74    15.831718 
  565000    1496.3836   -738.81504    319420.21    15.640806 
  565500    1532.6492   -745.59454    303945.38    15.655246 
  566000    1535.2093    -747.4239    298340.77    15.734828 
  566500    1339.5491   -753.63906    287337.22    15.654296 
  567000    1480.0835    -765.6556       288071    15.047392 
  567500    1530.0704   -760.27272    300058.68    15.337465 
  568000    1458.9051   -763.45807    304122.16    15.036038 
  568500    1537.0174    -757.7489    304516.35    15.296465 
  569000    1495.7205   -759.81812    313750.17    14.918201 
  569500    1510.3843   -752.49987    301261.98    15.458283 
  570000    1429.4437   -763.37296    297610.23    15.181174 
  570500    1369.7683   -760.17419    297486.29    15.272957 
  571000    1630.1436   -759.19399     298473.1    15.270786 
  571500    1613.9434   -750.54725    313727.26    15.254286 
  572000    1459.2107   -750.51364    314103.54    15.358074 
  572500    1500.2393   -762.96112    297958.08    15.062613 
  573000    1454.6161   -761.51909     297762.3    15.121502 
  573500    1451.8962   -764.49743    289922.33     15.12075 
  574000    1625.8889   -771.89898    273743.37    15.215503 
  574500    1491.9073   -769.76752    282664.18    15.156314 
  575000    1469.1624   -761.31675    293192.71    15.336956 
  575500    1567.8441     -759.242    307152.12    15.164697 
  576000    1411.7477   -762.38379    307911.95    15.061205 
  576500    1508.5357   -750.83696    318659.19    15.373329 
  577000    1507.2144   -740.53291    321332.55     15.51784 
  577500    1635.1305   -749.98295    298109.42    15.754321 
  578000     1460.715   -754.56979    289355.38    15.651102 
  578500     1358.875   -737.06332     297209.7    16.150968 
  579000    1647.1183   -735.04829    308920.33    16.310865 
  579500    1574.3192   -726.77988    324741.51    16.495838 
  580000    1520.1939   -741.42051    285094.92    16.336705 
  580500    1423.9516   -742.20641    290265.26    16.196778 
  581000    1530.9041   -732.65506    306388.48    16.264494 
  581500    1508.1918   -733.48139     301437.4    16.640199 
  582000    1516.6303   -735.41042    306236.09     16.14412 
  582500    1454.1154   -747.48655    299219.95    15.625959 
  583000    1525.3496   -738.91318    302466.04    16.109784 
  583500    1635.7326   -731.37585    304582.23     16.64195 
  584000    1444.8702   -744.84802    278699.51    16.694008 
  584500    1346.6615    -736.4207    298401.92    16.392447 
  585000    1461.7727   -734.16667    296294.47    16.732897 
  585500    1425.2921   -741.00185    284993.16    16.547582 
  586000    1597.1672   -735.91235    301725.32    16.466512 
  586500    1545.0697   -731.41954     307451.7    16.442713 
  587000    1478.2071   -743.55951    286532.54    16.489976 
  587500    1505.7363   -733.78859    305246.35     16.43776 
  588000    1434.6967   -729.54552    316019.06    16.642955 
  588500    1455.6378   -738.09614    286028.41    16.859591 
  589000    1433.0812   -736.99526    287862.12    16.856434 
  589500    1505.2408   -724.32113    317731.06    16.804837 
  590000    1403.4129   -733.14203    300625.84    16.778919 
  590500    1544.5501   -731.14465    298966.42    17.061166 
  591000    1570.3744   -732.32054    308700.85    16.459237 
  591500    1440.9823    -737.3032    284533.78    16.920846 
  592000    1530.4687   -737.27872    288341.44    16.930353 
  592500    1558.6728   -730.74054    310743.62    16.648143 
  593000    1439.5126   -741.09925     282439.8    16.664482 
  593500    1530.7825   -733.17955    300246.31    16.493083 
  594000    1559.2366   -732.06194    306799.84    16.459796 
  594500    1618.2499   -739.67918    286778.14    16.646726 
  595000    1485.7863     -732.654    304131.26    16.654927 
  595500    1473.3202   -722.63994    315473.09    16.828553 
  596000    1384.6585   -739.50574    279229.59    17.014854 
  596500    1458.1076   -729.59631    301834.96     16.66247 
  597000    1658.6805    -736.2196    304060.97    16.544834 
  597500    1510.8481   -741.05211     293500.9    16.263142 
  598000    1455.4438    -741.6683    294679.79    16.359623 
  598500    1496.3807   -737.17421    293315.35    16.956912 
  599000    1412.7129   -740.83451    289571.59    16.423346 
  599500    1428.8259   -742.86148     297867.3    15.952544 
  600000     1615.323   -739.77138    320035.09    15.527982 
  600500    1594.2727   -732.45854    320764.44    15.806583 
  601000    1403.7207   -745.28784    293920.89    15.932701 
  601500      1532.04    -759.0458    279048.64    15.677079 
  602000    1479.5488   -756.09918    286452.11    15.554871 
  602500    1358.5835    -767.3384    293300.68    15.050253 
  603000    1496.6596   -754.33446     313097.1     15.04693 
  603500    1529.9269   -742.82104    325648.92    15.347086 
  604000    1545.9576    -746.0403    312306.58    15.549218 
  604500    1550.3393   -749.10083    303763.15    15.593621 
  605000    1530.2797   -762.32438    288050.73    15.393627 
  605500    1470.5838   -765.94435    286534.91    15.301929 
  606000    1597.8724   -766.29588    284862.13    15.169136 
  606500    1487.1744   -757.04054    291452.79    15.523746 
  607000    1461.0029   -741.86079    311462.76    15.753243 
  607500    1528.2988   -743.20436    312363.23    15.748251 
  608000    1508.6104   -762.03228    289661.07    15.459029 
  608500    1460.3002   -756.69456    293693.33    15.384938 
  609000    1467.1288   -738.90309    306332.03    15.928143 
  609500    1516.8902   -733.87595    306089.39    16.291075 
  610000    1384.1624   -736.26133     290223.8    16.943477 
  610500    1502.0546   -726.15645    318335.16    16.741887 
  611000    1492.4877   -737.69378    294229.95    16.801611 
  611500    1540.0934   -731.16697    302214.17    16.841238 
  612000    1497.6627   -736.67121    289646.09    16.983702 
  612500    1597.5437   -733.79709     301298.8    16.885018 
  613000    1531.9623   -731.20577     309419.9    16.679605 
  613500    1568.9328   -737.73321    293652.72    16.750319 
  614000    1642.9378   -740.63967    293732.35    17.186767 
  614500    1689.4614   -733.53195    301054.22    16.487789 
  615000     1495.795   -731.79423    300823.15    16.531424 
  615500    1495.2406   -739.32254    281858.45     16.70885 
  616000    1406.4354   -728.25669    298339.34    16.800209 
  616500    1507.9059   -737.12286     300728.9    16.390143 
  617000    1602.2887   -727.97811    316830.27    16.531424 
  617500     1592.374   -732.96831     296474.1     16.71446 
[...]
 4848500    1705.0274   -742.71928    303047.85    15.886545 
 4849000    1365.1397   -752.09692    296195.13    15.630984 
 4849500    1436.7568   -750.31918    288593.86    15.739632 
 4850000    1380.1299   -762.60432    293303.49    15.037886 
 4850500    1404.7719   -764.27778    292624.37    15.196119 
 4851000    1419.1888   -755.56973    300565.39    15.440376 
 4851500    1583.1088   -760.53945    312569.65    15.113342 
 4852000    1520.3131   -757.34241    305531.44    15.163208 
 4852500    1468.8382     -754.048    310868.96    15.190581 
 4853000    1632.2697    -741.3808    319446.07    15.640804 
 4853500    1419.4433   -749.41043    307346.66    15.503749 
 4854000    1448.3784   -751.94704    294030.37    15.620658 
 4854500    1443.6974   -754.28461    279851.51    15.771504 
 4855000    1506.2725   -754.35612    289123.84    15.829499 
 4855500      1539.13   -755.79806    303794.43    15.285228 
 4856000    1529.6844   -760.38771    308718.73    15.024679 
 4856500     1500.987     -761.357    305605.96    15.077941 
 4857000     1459.549   -751.47243    311031.11    14.984401 
 4857500    1412.7812   -756.38359     298531.4    15.380166 
 4858000    1527.1487   -763.01413    293653.97    15.092563 
 4858500    1603.8961   -768.79194    281721.79    15.102669 
 4859000    1626.5486   -759.57734    296731.99    15.382601 
 4859500    1576.7838   -761.09895    309260.44    15.208326 
 4860000    1537.4989   -756.88866    311636.78    15.185091 
 4860500    1525.7699    -750.6838     328318.4    15.041831 
 4861000    1582.9747   -750.79008    312066.07    15.240333 
 4861500    1329.8908   -758.15281    303762.64     15.08391 
 4862000    1522.0949   -763.33882    287759.49     15.39472 
 4862500    1450.5987   -764.78498    282703.38    15.075959 
 4863000    1500.6051   -761.32439    285333.86    15.335549 
 4863500    1524.0879   -759.11319    309552.11    14.994627 
 4864000    1552.2893    -754.6089    317915.88    15.266568 
 4864500    1453.6978    -754.1653    322294.26    15.023225 
 4865000    1425.4481   -757.34474    311977.74    14.967808 
 4865500    1551.0783     -764.762    300517.04    15.039306 
 4866000    1578.9653   -760.22865    290529.04    15.463025 
 4866500    1488.1166   -762.83744    293939.37    15.123678 
 4867000    1361.5803   -762.32609    297238.18    15.107807 
 4867500    1499.9896   -753.61411    308435.92    15.315267 
 4868000    1709.8815    -759.3766    308798.78    15.038598 
 4868500    1501.2395   -750.53487    316924.42     15.31151 
 4869000    1610.9628   -760.11393     308607.1    15.127566 
 4869500    1522.6947   -756.49779    280277.04    15.661886 
 4870000    1473.5665   -749.13513    293203.75    15.674573 
 4870500     1549.987   -752.72761    291044.86     15.72411 
 4871000    1474.1802   -740.35821    298787.62    16.170154 
 4871500    1638.4857   -744.95502    277824.61    16.687395 
 4872000    1426.6271   -726.64772    309309.98    16.643049 
 4872500    1556.7703   -728.05889    327173.92    16.456454 
 4873000     1548.123   -741.52839    293713.94     16.57159 
 4873500    1562.2445   -738.25843    288170.45    16.608782 
 4874000    1594.4263   -740.40348    293756.02    16.553823 
 4874500    1503.0621   -732.79621    298103.93    16.928044 
 4875000    1410.6878   -745.17849    272715.47    16.567551 
 4875500    1457.4868   -732.58237    304471.43    16.634901 
 4876000    1527.3104   -743.78305    280029.31    16.677058 
 4876500    1674.1201   -730.05537    305765.86    16.880063 
 4877000    1580.9455     -732.057    308133.43    16.581369 
 4877500    1472.3868   -732.24996    299318.43    16.735645 
 4878000      1472.95   -745.08549    276179.35    16.685374 
 4878500    1515.1695   -735.24532    300718.61    16.566293 
 4879000    1571.3966   -726.97614    323465.44    16.382267 
 4879500    1445.2785   -729.96823    304308.14    16.615105 
 4880000     1572.909   -727.69543    313851.32    16.838978 
 4880500    1419.3566   -744.27496    281661.83    16.509585 
 4881000    1539.0239   -733.33373    307130.81    16.575568 
 4881500    1471.3114   -731.66941    307734.71    16.526717 
 4882000    1403.6683   -725.54626    317217.66    16.552226 
 4882500    1455.8502   -736.80079    301186.25    16.636303 
 4883000    1521.3056    -739.3865    278886.02    16.942549 
 4883500    1621.6451   -735.75902    294453.59    16.690234 
 4884000    1494.0109   -732.54295    314307.06    16.540588 
 4884500    1509.4268   -734.09044    301564.63    16.866127 
 4885000    1321.2094    -737.0454    287880.19    17.033525 
 4885500    1518.1035   -727.81736     307801.4    16.726194 
 4886000    1592.0256   -731.15525    310117.11    16.708786 
 4886500    1495.9774   -735.16725    296878.37    16.630537 
 4887000    1480.1247    -729.0982     312746.7    16.531948 
 4887500    1457.3622   -738.73248    287664.58     16.72742 
 4888000    1515.9211   -742.38896    289083.43    16.529262 
 4888500    1425.2346   -730.80272    317591.94    16.446405 
 4889000    1470.7036   -735.83567    309774.72    16.283511 
 4889500    1475.0519   -739.64163    283915.89    16.857131 
 4890000    1583.2001   -731.98803     305261.5     16.60757 
 4890500    1501.7664   -733.70643    296336.63     17.11878 
 4891000    1588.1793   -730.78049    300304.09    16.906124 
 4891500    1345.2363    -726.8124    317177.39    16.775812 
 4892000    1416.4854   -730.72811    305585.05    16.752418 
 4892500    1419.3955   -734.17742    291875.18    16.787628 
 4893000    1583.5749   -729.47041    305547.43    16.807316 
 4893500    1534.4787   -734.45335    294182.93    17.077743 
 4894000    1550.0772   -734.67062    289111.19    16.890451 
 4894500    1439.2444   -730.72468    305164.04    16.712854 
 4895000    1461.4067   -743.71677    302509.43    15.911044 
 4895500    1599.3418   -755.18531    298781.03     15.37071 
 4896000    1451.5707   -759.99638    290442.49    15.148301 
 4896500    1415.8258   -760.55545    293647.78    14.927871 
 4897000    1397.1142   -758.46461    294700.51    15.470148 
 4897500    1534.0368   -755.87106    295204.93    15.376278 
 4898000    1504.3995   -751.79147    296559.39    15.722632 
 4898500     1482.848   -743.44903    310206.09    15.587257 
 4899000    1461.6848    -738.7276    304700.24    16.212913 
 4899500    1556.7058   -743.29827    295432.11    16.227608 
 4900000    1403.0495   -733.79036    312908.25    16.152896 
 4900500    1496.5204   -734.09795    311234.48    16.346876 
 4901000    1454.1139   -741.38263    279562.46    16.836484 
 4901500    1333.6678   -736.41779    283612.99    16.993256 
 4902000    1457.9269   -724.63235    320610.29    16.741547 
 4902500    1490.2381    -734.9114     296366.4    16.900454 
 4903000     1352.336   -731.13129    308288.85    16.394649 
 4903500    1474.0453   -743.83686    289226.88    16.071761 
 4904000    1538.4412   -739.79863    294185.07    16.666434 
 4904500    1510.0966   -738.01008    302063.65    16.374819 
 4905000    1439.5265   -735.39411    294152.13    16.605867 
 4905500    1417.4499   -743.04502    303497.64    15.907283 
 4906000     1561.051   -748.07693     301527.2    15.620479 
 4906500    1446.1217   -738.29538    295573.35    16.261438 
 4907000    1486.7282   -731.98715    302992.55    16.974554 
 4907500    1466.6848   -729.40988    309633.31    16.466527 
 4908000    1513.9625    -732.1071    312278.26    16.375641 
 4908500    1463.6469   -749.60083    289645.23     15.89499 
 4909000    1461.3611   -763.09615    293438.04    15.176571 
 4909500    1568.2775   -763.59589    299569.39    15.161877 
 4910000    1573.6404   -751.37113    313461.22    15.267701 
 4910500    1523.2312   -755.73947    312329.89    15.099451 
 4911000    1469.4429   -753.18622     324753.3    14.983741 
 4911500    1395.8486   -752.86728    310419.65    15.404449 
 4912000    1427.3877    -762.7985    301325.64    15.088078 
 4912500    1531.7072   -754.38759    308715.45    15.318051 
 4913000    1496.1066   -747.03045    308996.82    15.643608 
 4913500    1454.6961   -760.77442    289331.64     15.36534 
 4914000    1316.2888   -760.40884    279585.82    15.449821 
 4914500    1441.1255   -753.58225    280196.15    15.830975 
 4915000    1496.9311   -746.63929    300689.96     15.72781 
 4915500    1492.7437   -759.79662    305759.01    15.111006 
 4916000    1588.8332   -762.47559    301839.61      15.1717 
 4916500    1489.4843   -755.01675    312633.08      14.8998 
 4917000    1513.3767   -756.02302    298201.47    15.407031 
 4917500    1503.0706   -758.94044    286483.18    15.432821 
 4918000    1381.7943    -765.2598    283055.79    15.070752 
 4918500    1390.1828   -765.72322    295705.21    15.079624 
 4919000    1638.5004   -764.01377    298777.69    15.050354 
 4919500    1504.3108   -758.14988    310044.82     15.17672 
 4920000    1482.6668   -749.70728    322308.04    15.214338 
 4920500    1569.5328    -753.3363    325782.98    15.208403 
 4921000    1411.3831   -756.51169    319245.35    15.176587 
 4921500    1450.2091   -765.23461    297103.77    15.105312 
 4922000     1669.618   -771.43072    281442.52    15.122434 
 4922500    1476.7253   -762.01943    285458.76    15.379468 
 4923000    1366.1476   -767.23578    285190.07    15.252399 
 4923500    1545.0657   -767.84706    272845.77    15.517176 
 4924000     1425.625   -760.20741    292297.58    15.391952 
 4924500    1356.6283   -763.95908    307962.87     15.13912 
 4925000    1529.0956   -758.52218    304409.41    15.300227 
 4925500    1452.1323   -749.15199    319300.82     15.29969 
 4926000    1465.1869   -741.47018    315589.29    15.753705 
 4926500    1473.3613   -748.75293    301594.94     15.76747 
 4927000    1569.5839   -754.52143    290773.46    15.538619 
 4927500    1369.8092   -764.13966    279586.96    15.514974 
 4928000    1425.5176   -765.51052    290378.73    15.155565 
 4928500    1445.4772   -754.98935    311276.53    15.011282 
 4929000    1550.0362   -750.74966    330342.14    15.029369 
 4929500    1583.0387   -753.39579    324152.67    15.055866 
 4930000    1429.0583   -759.98815    301172.22     14.99758 
 4930500    1495.0314   -763.39318    289250.02    15.237451 
 4931000     1415.605   -761.84305    282131.54    15.356161 
 4931500     1465.772   -764.60867    288019.05    15.228465 
 4932000     1444.208   -763.74383    298315.81    15.226609 
 4932500    1591.8055   -746.90022    313938.55    15.513021 
 4933000      1587.63   -740.81622     309014.6    16.078697 
 4933500     1555.037   -743.11136    280096.97     16.31286 
 4934000    1381.9038   -737.35734    306476.55    16.014968 
 4934500    1625.4779   -738.04532    325948.13    15.626955 
 4935000    1554.9549   -745.75035     304732.7    15.699432 
 4935500    1599.9154   -750.89791    293152.19     15.73799 
 4936000    1307.0468   -745.43772    296956.24    15.833484 
 4936500    1531.4741   -730.30611    306503.83    16.524138 
 4937000    1496.4728   -732.30469    307442.71    16.549428 
 4937500    1503.8915   -735.73853    293490.12    16.674773 
 4938000    1419.6549   -731.29438    297676.98    16.691946 
 4938500    1536.9517   -733.24892     315389.7    16.188598 
 4939000    1533.0251   -751.01294    284452.05    15.766928 
 4939500     1568.175    -761.6108    281492.59    15.640666 
 4940000    1434.0266   -746.06557    297742.98    15.684205 
 4940500    1660.7706   -728.63925     328466.4    15.709286 
 4941000    1495.9278    -742.5883    312667.87     15.75465 
 4941500    1394.9718   -746.42314    291230.93    15.911652 
 4942000    1392.3228   -729.19518    304507.89    16.524293 
 4942500    1533.7125   -733.84807    302056.38     16.85891 
 4943000    1472.0627   -731.92517    303578.31    16.913816 
 4943500    1543.4264   -734.57979    301317.59    16.478168 
 4944000    1487.1628   -742.35198    295388.86    16.157578 
 4944500    1522.3145   -745.02531    291747.86    16.169074 
 4945000     1544.513   -736.50101    295628.66    16.743085 
 4945500    1462.1889     -735.896    298092.44    16.503243 
 4946000     1548.164   -729.23984    306559.52    16.776948 
 4946500    1464.4173    -735.5726    288711.13     16.95907 
 4947000    1411.2763   -736.56035     290443.1    16.818061 
 4947500    1501.0739    -723.4014    328404.53    16.780157 
 4948000    1441.7813   -732.17119    300031.46     16.60851 
 4948500    1530.7789   -734.46554    300479.97    16.658617 
 4949000    1564.5185   -738.67537    289250.01    16.900171 
 4949500    1553.5434   -732.52225    295245.45    17.003209 
 4950000    1570.0027   -730.95031    308486.61    17.094524 
 4950500    1453.4258   -738.55349    292415.87    16.560587 
 4951000    1357.3027   -728.17161    305517.43    16.927207 
 4951500    1405.2902   -732.68201     300862.9    16.864694 
 4952000    1508.9265   -745.75482    288554.13      16.0974 
 4952500    1681.0137   -752.53755    298227.19    15.631647 
 4953000    1458.5617   -738.76989    313205.57    15.703027 
 4953500    1552.3904   -741.98515    305998.45    15.834862 
 4954000    1622.0826   -757.61409    283565.61    15.575744 
 4954500    1533.6013   -753.86312    286690.49    15.691338 
 4955000    1352.3883     -738.714    311055.34    15.836628 
 4955500    1412.0235    -737.5836    312736.14     15.62431 
 4956000    1444.6326   -746.07689    313932.74    15.484575 
 4956500    1495.5958   -761.85465    295986.05      15.3246 
 4957000     1424.385   -765.31412     288692.8    15.334061 
 4957500    1506.7269   -768.09359     281935.7    15.201145 
 4958000    1573.9769   -763.44579    284453.47    15.384619 
 4958500    1519.6182    -762.0317    299447.71    15.182069 
 4959000    1601.1588   -756.66355       314255    15.107159 
 4959500    1645.8075   -745.53581     327640.6    15.329875 
 4960000    1359.0602   -756.32651    316600.18    15.037967 
 4960500    1424.4756    -753.8597     304791.7    15.366906 
 4961000     1419.684   -764.05434     293629.7    15.257946 
 4961500    1591.3738   -767.77688    283469.83    15.330427 
 4962000    1526.0615   -764.07844    279381.83    15.509003 
 4962500    1455.2857   -766.01502    280064.33    15.214567 
 4963000    1430.8656   -762.92549    298030.89    15.042612 
 4963500    1530.6618   -760.66288    302718.07    14.976708 
 4964000    1476.1695   -758.07611    312310.34    14.969565 
 4964500    1586.4751   -748.49528    329401.35    15.196801 
 4965000    1484.2127   -758.56855       311818    15.185882 
 4965500    1440.8294   -760.78021    301559.88     14.94672 
 4966000    1510.1305   -753.22205    293669.23    15.615617 
 4966500    1501.1757   -751.68215    283570.68    15.962026 
 4967000    1490.7962   -730.05034    308763.55    16.551205 
 4967500    1440.4003   -733.20874    299127.76    16.997112 
 4968000    1508.2062   -734.40884    293088.01    16.910391 
 4968500    1589.1752   -732.14106    311143.05    16.414052 
 4969000    1464.5913   -728.45997    315187.01    16.532981 
 4969500    1407.6658   -741.35595    284062.59    16.581042 
 4970000    1594.0361   -730.65934    318430.49    16.350439 
 4970500    1511.3522   -727.95163    308651.63    16.749313 
 4971000    1459.5353   -733.08273    296512.39    16.818255 
 4971500    1536.0921   -733.46534    299661.37    16.914045 
 4972000    1498.1422    -728.5238    315394.98    16.949876 
 4972500    1479.4212   -734.12636    302053.62    16.613503 
 4973000     1417.931   -732.77969    296681.32    16.815392 
 4973500    1441.8542    -740.8538    294019.23    16.521761 
 4974000    1648.2817   -735.66651    305092.05    16.428502 
 4974500    1452.0727   -734.21939    291127.56    16.858522 
 4975000    1497.2827   -735.40046    295250.23    16.621457 
 4975500    1472.6069   -725.87506    315815.28    16.730091 
 4976000    1394.2513   -734.64565    299330.97    16.651171 
 4976500    1456.1408   -741.20434    277867.58    16.802249 
 4977000    1583.3644   -733.65476    302792.08    16.728992 
 4977500    1535.6364   -728.88899    312464.75    16.799576 
 4978000    1509.6284   -733.05463    309044.56    16.667556 
 4978500    1433.3206   -738.71066    283157.13    16.800957 
 4979000    1475.7496   -735.32853    296342.08    17.032426 
 4979500    1511.4918     -735.511    294632.82    16.818742 
 4980000    1526.9147   -730.74154    296047.39    16.812939 
 4980500    1539.3601   -730.82836    304434.76    16.945043 
 4981000    1558.8483   -731.04318    302574.19    16.511101 
 4981500    1484.7092   -727.91083    314527.94    16.928671 
 4982000    1529.8468   -730.37233    317590.96    16.342189 
 4982500    1507.0723   -747.36531    281551.43    16.223757 
 4983000    1420.6146    -748.0472    299128.06    15.587509 
 4983500    1398.2586   -747.65956    293992.17      15.8535 
 4984000    1402.0597   -754.03066    294843.08    15.533352 
 4984500    1448.6017   -761.71506    299635.73    15.103559 
 4985000    1530.8976   -766.48392    293018.21    15.124639 
 4985500    1533.1901   -759.38577    296925.29    15.444251 
 4986000    1592.2374   -762.20911    297413.86    15.173125 
 4986500    1624.5303   -761.00037    305407.54    15.205794 
 4987000    1466.5607   -762.14084    291233.99    15.419769 
 4987500    1472.5965   -764.99305    297154.67    15.055651 
 4988000       1665.2   -763.13615    305909.64    14.973479 
 4988500     1515.104   -760.67106    302186.34    15.086612 
 4989000    1430.0068   -765.39034    288762.47     15.22496 
 4989500     1478.432   -751.86966    286423.58    15.731754 
 4990000     1427.017   -752.35952    291351.49    15.514439 
 4990500    1517.4364   -763.78942    290932.66     14.97245 
 4991000    1503.3403   -757.93137    293979.31    15.483924 
 4991500    1436.5507   -762.00039       301569    15.031579 
 4992000    1438.1508   -759.61152    305188.59    15.304041 
 4992500    1593.6639   -759.29648    310256.57    15.107606 
 4993000    1631.3108   -754.41311    326792.98    15.225042 
 4993500     1484.508   -754.65308    318594.79     15.21327 
 4994000    1543.2158   -756.00514    308178.98    15.280141 
 4994500    1346.1534   -762.04481    298216.82    15.158499 
 4995000     1588.301   -757.41651       281701    15.689299 
 4995500    1422.6666   -754.59552    288893.24    15.616604 
 4996000    1464.5613   -746.55336    310862.62    15.614661 
 4996500    1551.4562   -742.10656    315222.91    15.625461 
 4997000    1403.6669   -735.79135    320184.79    15.730476 
 4997500    1557.5759   -750.20407    300992.17    15.599624 
 4998000    1498.2983   -751.42759    291162.58    15.740966 
 4998500    1500.7396   -760.80803    293856.13     15.30859 
 4999000    1508.9777   -764.26595    292123.85    15.052837 
 4999500    1498.0421   -756.56246    301764.31    15.421395 
 5000000    1421.4188   -763.25113     303680.5    14.999658 
Loop time of 2008.12 on 8 procs for 5000000 steps with 256 atoms

Performance: 430.254 ns/day, 0.056 hours/ns, 2489.894 timesteps/s
96.8% CPU use with 8 MPI tasks x no OpenMP threads

MPI task timing breakdown:
Section |  min time  |  avg time  |  max time  |%varavg| %total
---------------------------------------------------------------
Pair    | 846.86     | 889.41     | 927.35     |  87.6 | 44.29
Neigh   | 18.817     | 20.206     | 22.827     |  31.1 |  1.01
Comm    | 217.12     | 257.01     | 303.59     | 172.9 | 12.80
Output  | 35.682     | 35.689     | 35.717     |   0.2 |  1.78
Modify  | 786.91     | 789.82     | 792.03     |   5.7 | 39.33
Other   |            | 15.98      |            |       |  0.80

Nlocal:    32 ave 32 max 32 min
Histogram: 8 0 0 0 0 0 0 0 0 0
Nghost:    1025.88 ave 1036 max 1008 min
Histogram: 1 0 0 0 0 2 2 0 2 1
Neighs:    2812.25 ave 3139 max 2518 min
Histogram: 1 1 1 1 1 0 1 0 0 2

Total # of neighbors = 22498
Ave neighs/atom = 87.8828
Neighbor list builds = 175989
Dangerous builds = 0

write_data	data.final.${p_id}
write_data	data.final.1
Total wall time: 0:33:28
