LAMMPS (8 Feb 2019)
Processor partition = 3
echo both

include         in.partitions
variable p_id world   0 1 2 3
include		in.temp
variable	temperature equal 1500.0
variable	tempDamp equal 0.1 # approx 0.1 ps
include		in.pressure
variable	pressure equal 300000.
variable	pressureDamp equal 1.0
include 	in.seed
variable	seed world 74581 3459 97394 49764
units		metal
read_restart    Restart.lmp.${p_id}
read_restart    Restart.lmp.3
  restoring atom style atomic from restart
  orthogonal box = (-0.708869 -0.708869 1.51221) to (15.8613 15.8613 13.6402)
  2 by 2 by 2 MPI processor grid
  pair style eam/alloy stores no restart info
  256 atoms
include 	in.setup
variable	out_freq equal 500
variable	out_freq2 equal 500

neigh_modify    delay 10 every 1
include		in.al
### Argon Potential Parameters ###
pair_style 	eam/alloy
pair_coeff 	* * Al99.eam.alloy Al

timestep	0.002 # According to Frenkel and Smit is 0.001

thermo          ${out_freq}
thermo          500
thermo_style 	custom step temp pe press lx


restart 	${out_freq} Restart.lmp.${p_id} Restart2.lmp.${p_id}
restart 	500 Restart.lmp.${p_id} Restart2.lmp.${p_id}
restart 	500 Restart.lmp.3 Restart2.lmp.${p_id}
restart 	500 Restart.lmp.3 Restart2.lmp.3



timer 		timeout 23:50:00 every 1000
New timer settings: style=normal  mode=nosync  timeout=23:50:00

# NPT

include		in.dump
dump            myDump all atom ${out_freq2} dump.al.${p_id}
dump            myDump all atom 500 dump.al.${p_id}
dump            myDump all atom 500 dump.al.3
dump            myDcdDump all dcd ${out_freq2} out.${p_id}.dcd
dump            myDcdDump all dcd 500 out.${p_id}.dcd
dump            myDcdDump all dcd 500 out.3.dcd
dump_modify	myDump append yes
dump_modify     myDcdDump append yes



fix             1 all plumed plumedfile plumed.dat outfile plumed.out
fix             2 all nph aniso ${pressure} ${pressure} ${pressureDamp} couple xy
fix             2 all nph aniso 300000 ${pressure} ${pressureDamp} couple xy
fix             2 all nph aniso 300000 300000 ${pressureDamp} couple xy
fix             2 all nph aniso 300000 300000 1 couple xy
Resetting global fix info from restart file:
  fix style: nph, fix ID: 2
fix             3 all temp/csvr ${temperature} ${temperature} ${tempDamp} ${seed}
fix             3 all temp/csvr 1500 ${temperature} ${tempDamp} ${seed}
fix             3 all temp/csvr 1500 1500 ${tempDamp} ${seed}
fix             3 all temp/csvr 1500 1500 0.1 ${seed}
fix             3 all temp/csvr 1500 1500 0.1 49764
fix             4 all momentum 10000 linear 1 1 1 angular

run             25000000 upto # 50 ns
All restart file global fix info was re-assigned
Neighbor list info ...
  update every 1 steps, delay 10 steps, check yes
  max neighbors/atom: 2000, page size: 100000
  master list distance cutoff = 8.28721
  ghost atom cutoff = 8.28721
  binsize = 4.1436, bins = 4 4 3
  1 neighbor lists, perpetual/occasional/extra = 1 0 0
  (1) pair eam/alloy, perpetual
      attributes: half, newton on
      pair build: half/bin/atomonly/newton
      stencil: half/bin/3d/newton
      bin: standard
Per MPI rank memory allocation (min/avg/max) = 4.01 | 4.01 | 4.01 Mbytes
Step Temp PotEng Press Lx 
 4999500    1500.8849   -730.79684    310667.55     16.57014 
 5000000     1501.942   -742.29515    275181.97    17.074453 
 5000500     1545.421   -737.06196    297623.94    16.588492 
 5001000    1542.5369   -737.43439     294190.8    16.574796 
 5001500     1435.449   -736.13026    301171.24    16.567513 
 5002000    1447.1259   -727.87009    314622.62     17.03478 
 5002500    1457.5089   -732.04852    296884.87    16.807984 
 5003000    1492.3063   -722.22855    326388.79    16.740939 
 5003500    1495.1228   -726.32645    313092.56    16.690645 
 5004000    1432.1998   -727.63267     308912.3    16.725052 
 5004500    1541.0137   -727.39833     318444.5    16.798453 
 5005000    1468.3467   -736.65859    297080.66     16.63496 
 5005500    1552.6222   -740.42053    282725.26    17.205347 
 5006000    1557.2604   -730.31157    310842.61     16.79451 
 5006500    1379.3394   -730.59824    304249.19    16.749258 
 5007000    1361.4767   -745.03855    274647.78    16.715797 
 5007500    1498.9053   -737.33764    296328.62    16.567313 
 5008000    1591.6324   -733.26519    304632.13    16.613999 
 5008500       1505.5   -732.88252    313784.24    16.521853 
 5009000    1518.1537   -732.59113    303510.69    16.524638 
 5009500    1456.6813   -740.11142    288617.48    16.885999 
 5010000    1412.5519   -736.70912    296732.75    16.604696 
 5010500    1466.2795   -726.33242    321444.83    16.806404 
 5011000    1445.8406   -722.94187    315424.08    16.835461 
 5011500    1402.4697   -744.91748    271799.13    16.734796 
 5012000    1538.6399   -730.81842       303612    16.756354 
 5012500    1507.9443   -728.75983    304806.23    16.904772 
 5013000    1424.6759   -733.10471    306196.93    16.588689 
 5013500    1536.8896   -734.83166    294702.52    16.628243 
 5014000    1380.8689   -737.90167    296236.64    16.532726 
 5014500    1437.9529   -725.52707    322552.23    16.434461 
 5015000    1555.9625   -733.79012    301401.54    16.544672 
 5015500    1615.3229   -741.39145     309466.5    15.792205 
 5016000    1560.9635   -751.91942    312779.11    15.380563 
 5016500    1455.5611   -758.51638    305225.16    15.250825 
 5017000     1599.194   -765.34742    298521.57    15.177898 
 5017500    1658.1256   -760.26733    304040.78    15.075475 
 5018000     1553.226   -756.01106    303378.97    15.447693 
 5018500    1566.4107   -754.70104    316529.59    15.133015 
 5019000    1647.9621   -756.32288    306943.95    15.344454 
 5019500    1429.7308   -762.15074    300777.32    15.163937 
 5020000    1535.1537   -763.85675    295200.23    15.160271 
 5020500    1472.2075   -769.18364    285343.81    15.070473 
 5021000    1458.1334   -757.67874    295029.79    15.504557 
 5021500    1414.7033   -759.48089    303773.88    15.004622 
 5022000    1485.2746   -756.64927    308371.56    15.256548 
 5022500    1547.1102   -745.95229    314646.02    15.498821 
 5023000    1611.0261    -762.7518    285159.28    15.367683 
 5023500    1468.4698   -763.79462    288428.92    15.129501 
 5024000     1553.235   -765.76858    286279.94     15.27399 
 5024500    1480.3948   -759.64778    280280.81    15.598928 
 5025000    1618.9824   -759.84188    303531.31    15.205808 
 5025500    1562.8959   -753.12675    311798.67    15.309653 
 5026000    1591.5272   -762.33447     314379.7    14.944065 
 5026500     1564.617   -753.60006    307978.11    15.345394 
 5027000     1378.956   -761.69564    297122.78    15.020995 
 5027500    1484.5593   -753.22243    296942.19    15.445743 
 5028000    1471.3215   -765.22471    281034.91    15.334694 
 5028500    1507.0114   -764.93884    289856.66    15.237179 
 5029000    1487.0814   -765.45044    285470.54    15.377801 
 5029500    1459.6251   -768.18153    285677.98     15.14866 
 5030000    1588.8435   -761.67967    284484.37    15.497366 
 5030500    1617.9164   -757.03254     298844.7    15.312143 
 5031000    1528.8941    -757.1776    308744.01     15.20009 
 5031500    1504.0225   -749.37141    319245.73    15.262343 
 5032000    1585.7379   -753.76037    319520.23    14.971883 
 5032500     1462.523   -748.01752    321028.93    15.339802 
 5033000    1520.2255    -761.4476    302255.62     15.00771 
 5033500    1557.5481   -761.97046    293370.57    15.075268 
 5034000    1506.0328   -762.55737    287957.81    15.413351 
 5034500    1530.8458   -762.57995    288490.33    15.332461 
 5035000    1478.9949   -752.97427    309862.23    15.323832 
 5035500    1482.9093   -758.05105     317777.5     14.91907 
 5036000    1501.5038   -749.74789    312105.14    15.405704 
 5036500    1588.2021   -748.45443    303229.23    15.685546 
 5037000    1425.0314    -750.4606    296288.68    15.638196 
 5037500    1408.5198   -762.35963    285218.35    15.329016 
 5038000    1544.9692   -762.65573    278276.05    15.604145 
 5038500    1497.7773   -757.83179    295273.03    15.475974 
 5039000    1383.6129   -753.97084    318482.85    15.088576 
 5039500    1551.4431   -752.65261    324767.06    15.017458 
 5040000    1456.5899   -756.14678    298954.87    15.362214 
 5040500    1474.5285   -765.95341     283351.1    15.321596 
 5041000    1447.1351   -768.24018    277542.39    15.175358 
 5041500     1509.365   -763.84752    292973.68    15.211094 
 5042000    1492.7268   -756.99273    308099.21    15.125707 
 5042500    1609.7146   -757.83568    310999.22    15.248875 
 5043000    1577.2708   -758.10878    308620.72    15.215918 
 5043500    1582.9404    -739.3022    316356.01    15.784626 
 5044000    1492.4984   -737.57346    306759.05    16.152255 
 5044500    1484.2188   -745.20523    293053.81     16.02716 
 5045000    1508.1887   -753.69963    281953.26    15.660691 
 5045500    1526.0768   -754.90939    302945.36    15.585199 
 5046000    1559.5603   -741.37282    320995.02     15.48493 
 5046500    1521.6159   -752.04961    318015.34    15.270763 
 5047000    1609.5037   -757.58434    303719.08    15.312915 
 5047500    1498.1076   -752.66397    286816.11    15.828469 
 5048000    1471.5268   -759.98034    290741.27    15.428576 
 5048500    1470.4794   -762.20836    292496.98    15.243737 
 5049000     1479.958   -760.95167    293775.53    15.261177 
 5049500    1427.8718   -760.79482    290850.72    15.470073 
 5050000    1525.9863   -761.43022    295803.84    15.167419 
 5050500    1541.1664   -758.71592    295902.63    15.334445 
 5051000    1527.1242   -758.18304    296126.59     15.32205 
 5051500    1521.0188   -764.15252    287549.54    15.354722 
 5052000    1604.9316   -760.37644    297984.49    15.228763 
 5052500     1473.573   -753.38137    316338.58    15.005914 
 5053000     1519.372   -756.09848     317199.5    15.061261 
 5053500    1434.7754   -748.55486     321926.1    15.289376 
 5054000    1453.2666   -751.55161    310880.31    15.321953 
 5054500    1438.6216   -762.44772    300064.69    15.259607 
 5055000    1356.5384   -756.61345    283529.67    15.633679 
 5055500    1394.0744   -756.00395    289152.19    15.613675 
 5056000    1461.2407   -750.30198    299360.27    15.556756 
 5056500    1702.3948   -743.37877    314642.53    15.662029 
 5057000    1620.9661   -750.81801    312200.74    15.453144 
 5057500    1477.2451    -762.5641    304622.26    15.061011 
 5058000    1488.8466   -757.74698     305613.2     15.03665 
 5058500     1481.811   -758.21604    308142.35    15.020699 
 5059000    1558.6077   -756.76688    308527.62    15.275215 
 5059500    1344.3281   -761.81924       304167    15.024698 
 5060000    1478.0973    -765.2163    296430.98    15.159481 
 5060500    1357.8926   -772.48985    272998.79    15.140021 
 5061000    1397.7479   -761.63233    288241.39    15.361268 
 5061500    1396.9285   -762.37321    294968.45    15.285834 
 5062000    1516.8106   -762.17924    296102.19    15.335542 
 5062500    1368.5304   -764.08295    303292.88    14.966867 
 5063000    1506.9723   -747.56128     298154.7    15.800543 
 5063500    1536.2405   -737.32177    308086.14    16.098324 
 5064000    1488.1454    -739.2228    306470.41    15.955429 
 5064500    1526.7612   -737.72786    291060.06    16.360406 
 5065000    1533.3344   -733.35365    315050.74    16.141692 
 5065500    1494.7689   -736.07562    303766.01    16.239297 
 5066000    1557.6831   -737.53479    289516.82    16.913126 
 5066500    1545.5259   -741.88283    288388.58    16.498866 
 5067000    1471.1282   -732.13487    311773.89    16.406208 
 5067500    1668.9184   -739.15475    288392.42    16.894381 
 5068000    1488.9869   -740.05248    283175.08    16.763203 
 5068500    1427.1064   -729.54199    310939.65    16.302153 
 5069000    1537.3356   -734.07951     301911.3    16.704066 
 5069500    1552.6014   -741.28418    286783.49    16.518343 
 5070000    1621.9327   -743.84746    300458.62     16.05384 
 5070500    1482.5776   -726.53946    319938.82    16.282498 
 5071000    1521.0933   -733.51688    303941.07    16.536794 
 5071500    1485.7998   -734.14266     297449.3    16.779953 
 5072000    1503.0621   -737.86249    287797.81    16.883173 
 5072500    1533.1219   -732.09999    308093.23    16.414145 
 5073000    1482.9365    -731.6151    305407.92    16.933122 
 5073500    1524.8927   -725.16521    318754.97    16.625954 
 5074000    1491.7332   -726.54292    304774.46    16.967883 
 5074500    1556.5041    -733.2348     300974.6    16.839615 
 5075000    1412.7773   -740.42955    289589.37    16.626336 
 5075500    1488.7677   -737.23861    293514.98    16.650263 
 5076000    1697.4537   -746.35816    302751.16    15.863591 
 5076500    1532.7206   -740.60869    310585.11    15.783589 
 5077000     1552.496   -760.80964    302526.53    15.121342 
 5077500    1543.8661   -746.71869    305295.23    15.520617 
 5078000    1555.9472    -764.7776    291530.68    15.094428 
 5078500    1605.9155   -764.29331    290821.31    15.263269 
 5079000    1516.6546   -771.26358    270064.83    15.413872 
 5079500    1481.2208   -765.58449    284424.07    15.377897 
 5080000     1391.947   -759.34269    302738.97    15.049691 
 5080500     1489.426   -749.26049    317139.88    15.205407 
 5081000    1671.3685   -755.13902    307777.26     15.22123 
 5081500    1583.7223   -757.33092    314305.34    15.228192 
 5082000    1634.9712    -757.3834    310229.59    15.052501 
 5082500    1457.8114   -753.16695    311398.77    15.270737 
 5083000    1602.5783   -756.33873    307349.02    14.920292 
 5083500    1615.8693   -763.04467    292799.92    15.288609 
 5084000    1487.5782   -765.84266    292555.34    15.136446 
 5084500    1428.3075   -765.80946    292844.67     14.95389 
 5085000    1509.9573   -756.84217    289213.25    15.558325 
 5085500    1516.2081   -766.97535    287854.14    15.203249 
 5086000     1522.688   -763.13627    292660.75    15.144969 
 5086500    1470.4563   -755.84863    309325.87    15.158237 
 5087000    1507.8877   -748.63605    301269.48    15.532333 
 5087500    1424.6075   -742.38548     302244.3    15.879002 
 5088000    1410.5089   -757.26979    285270.95    15.625815 
 5088500    1418.8688   -750.68929    289660.83    15.823315 
 5089000    1355.8852   -758.80279     306220.4    15.200801 
 5089500     1516.439   -758.01763    311843.22    15.198897 
 5090000    1594.1657   -750.98968    317616.43    15.185891 
 5090500    1409.1273    -750.1462    322707.24     15.29816 
 5091000    1474.4944   -757.90554    303682.05    15.165867 
 5091500    1401.5654    -768.0484    285568.63    15.286552 
 5092000    1337.3562   -768.22417    283011.26    15.116412 
 5092500    1411.1889   -764.46914    292861.33    15.263076 
 5093000     1591.104   -765.18845    293312.31     15.25014 
 5093500    1598.6242   -763.21483    300708.37    15.035647 
 5094000    1499.4669   -753.28498    318165.84    15.119679 
 5094500    1425.1526   -759.35443    310060.51     14.94868 
 5095000    1501.5687   -753.44389    299157.69    15.559307 
 5095500    1665.2262   -748.96777    296920.03    15.701537 
 5096000    1450.9327   -758.00351       297226    15.266532 
 5096500     1394.653   -759.47315    291102.89    15.311473 
 5097000     1567.314   -748.23468    297536.46     15.75152 
 5097500    1694.4773   -754.71628    291823.76    15.655689 
 5098000    1504.6607   -767.03375    282615.25    15.293524 
 5098500    1506.1451   -765.82604    287559.41    15.145785 
 5099000    1508.3027   -766.12082    298354.31    14.984587 
 5099500     1460.195   -752.01395    309374.48    15.393984 
 5100000    1429.2374   -760.06431    308582.63    14.983661 
 5100500    1521.4941   -755.24004    300222.94    15.401255 
 5101000    1491.4257   -767.51422    288938.32    15.004001 
 5101500    1571.1195   -765.62402    288626.48    15.240728 
 5102000    1470.4671   -765.78585    279110.74    15.210942 
 5102500    1408.1074   -761.79274    289934.36    15.411165 
 5103000    1376.8498   -764.87895    300496.23    15.200111 
 5103500    1514.2036   -763.35788    303342.91    15.066116 
 5104000    1466.7024   -755.43815    311632.99    15.324757 
 5104500    1559.2565   -754.61143    309640.52     15.21139 
 5105000    1484.7049   -756.68764    306189.49     15.36663 
 5105500    1567.6479    -758.7484    321226.12    14.925181 
 5106000    1601.5636   -753.35598    316066.59    15.261624 
 5106500    1358.9722   -761.51858    304753.55    14.944479 
 5107000    1545.5832   -760.89829     290825.5    15.322368 
 5107500    1484.6951   -767.03437    280415.88    15.315734 
 5108000    1473.0944   -770.57513    274090.42    15.305754 
 5108500    1502.4702   -765.56064    290282.11    15.107695 
 5109000     1394.269   -758.51269    292012.27    15.424434 
 5109500    1584.8656   -763.08307    298913.72     15.09056 
 5110000    1581.1021    -755.4907    310614.48    15.287736 
 5110500    1449.6287   -757.52478    316698.02    15.050826 
 5111000    1473.1405   -759.37134    311313.17    15.131757 
 5111500    1406.4683   -764.63337    299229.67    15.036692 
 5112000    1517.3248    -758.6315    294390.38    15.318907 
 5112500     1473.004   -756.23555    300265.04    15.302244 
 5113000    1416.0973   -758.58095    299586.35    15.307884 
 5113500    1493.2841   -740.87658    304556.08    15.848721 
 5114000    1526.6879   -742.74446    315031.94    15.620444 
 5114500    1571.6879   -762.95329    296122.59    15.170651 
 5115000    1498.1779   -766.25331    284136.52    15.266051 
 5115500    1535.4261   -761.94501    288373.73    15.377153 
 5116000    1516.4726   -762.99619    291076.18     15.34299 
 5116500    1513.4265   -753.69493    302499.98    15.279426 
 5117000    1506.1423   -753.05165     317264.8    15.278446 
 5117500    1379.5871   -751.76098    321195.25    15.178672 
 5118000    1455.1663   -746.59262    331335.26    15.221653 
 5118500    1426.0139   -753.19919    313729.59    15.259346 
 5119000    1473.0891   -761.06013    292513.45    15.326324 
 5119500    1573.8432   -774.77649    271442.18    15.222281 
 5120000    1542.8596   -766.21034    286530.91    15.239214 
 5120500    1501.8702   -760.99938    295774.23      15.2301 
 5121000    1597.3189   -763.40525    291603.37    15.329508 
 5121500     1591.534   -761.72134    292789.23    15.328895 
 5122000    1517.9699   -758.61803    296830.27    15.267978 
 5122500    1534.5522   -749.27683    320433.91    15.176559 
 5123000     1530.683   -749.94515     321861.9    15.225171 
 5123500    1449.1343   -752.60002    315303.88     15.18206 
 5124000    1480.7513   -751.86355     320885.3    14.990863 
 5124500    1495.7717   -762.50867       299319    15.175984 
 5125000    1404.3008   -764.57981    291545.61    15.105317 
 5125500    1428.5728   -759.54031    287683.44     15.43007 
 5126000    1422.2585   -761.18902    302449.19     15.17561 
 5126500    1581.7519   -758.12281    305072.81    15.218564 
 5127000    1531.9645   -748.83498    318309.41    15.324423 
 5127500    1548.2124   -742.51589     326819.6    15.504427 
 5128000    1493.0653   -749.76498    299206.93    15.623853 
 5128500    1525.2676   -750.99189    292501.94     15.74463 
 5129000    1523.2375   -769.56633    284382.72      15.1716 
 5129500    1479.8856   -762.66146    288397.19     15.29405 
 5130000    1552.5129   -747.27214    292585.12    15.804781 
 5130500    1464.7992   -740.69256    304601.23    15.735906 
 5131000    1450.4803   -762.80939    299086.93    15.127349 
 5131500     1609.826   -761.56216    307135.83    15.096047 
 5132000    1526.0761     -760.889    301390.79    15.275923 
 5132500    1493.5817   -756.29904    305783.23    15.210315 
 5133000    1474.4634   -761.39939    289103.27    15.304594 
 5133500    1403.8992   -769.17134    282533.42    15.296018 
 5134000    1570.4004   -765.56511    289762.07    15.201481 
 5134500    1307.1848   -761.24088    296093.82    15.250704 
 5135000    1515.8263   -764.43049    286976.23    15.378974 
 5135500    1439.2563   -763.87156    284293.97    15.400864 
 5136000    1409.3814   -758.99797    292454.68    15.314854 
 5136500    1464.7912   -757.21037     301579.2    15.356642 
 5137000    1392.3277   -752.28769    317835.61    15.178439 
 5137500    1549.3196   -747.77294    326778.17    15.179661 
 5138000     1466.722   -756.65939     309029.8    15.222326 
 5138500    1434.0486   -763.16336    300364.37    15.148785 
 5139000    1507.1328   -767.61825    289887.12    15.227014 
 5139500    1477.3893   -770.96104     278192.4    15.044819 
 5140000    1336.8364   -764.26323     287414.3    15.131398 
 5140500    1541.8476   -758.51182    297014.37    15.322403 
 5141000    1428.7473   -754.69979    312533.13    15.205686 
 5141500    1292.9668   -752.87107     316897.7    15.216819 
 5142000    1558.5777    -751.2536    323773.74    15.238289 
 5142500    1399.9114    -759.6734    300090.29    15.254749 
 5143000    1520.2851   -756.77507    305769.15    14.992052 
 5143500    1564.8938   -754.76554    308166.39     15.31957 
 5144000    1505.1898   -753.37335    317244.93    15.281271 
 5144500    1469.7708   -751.23045    319550.83     15.20517 
 5145000    1441.8051   -751.72293    322056.98    15.196251 
 5145500    1487.6452   -748.78029    320980.12    15.354411 
 5146000    1533.9592   -742.66969    306086.76    15.853264 
 5146500    1447.8869   -740.08636     300160.3    16.168476 
 5147000    1448.7455   -750.06649    295807.48    15.718622 
 5147500    1554.3356   -763.52505    287167.92    15.361519 
 5148000    1552.5486   -765.78304    291806.52    15.205304 
 5148500    1600.9199   -753.95844    299552.62     15.51487 
 5149000    1456.7601   -744.37009    312998.79    15.625056 
 5149500    1467.5864    -741.8409    320609.09    15.477771 
 5150000    1544.4279   -757.36783    305576.47    15.214691 
 5150500    1555.5177   -754.56153    304056.42    15.378225 
 5151000    1526.8894   -765.19189    299334.54    14.941883 
 5151500    1395.7757    -751.8707    300432.58    15.475707 
 5152000    1541.3652   -765.38307    290131.36    15.061346 
 5152500    1713.8191   -767.13303    295536.31    15.185587 
 5153000    1486.1058   -764.78935    289395.87    15.129903 
 5153500    1668.2764    -763.7875    296532.17    15.186752 
 5154000    1431.9346   -762.54477    301355.18    15.120539 
 5154500    1533.8184   -763.13043    305315.76    15.028457 
 5155000    1368.9718   -744.02769    318320.79    15.482567 
 5155500    1404.9948   -760.39492    314836.17    15.013241 
 5156000    1416.7396   -763.60416    303160.15    15.130267 
 5156500    1446.7632   -765.69591     285077.6     15.19667 
 5157000     1474.203   -760.43422    287883.61    15.344712 
 5157500    1625.4311   -765.82978    291450.81    14.994205 
 5158000    1426.4706   -754.95318    305413.13    15.320025 
 5158500    1411.5729   -761.86135    308626.26    15.131255 
 5159000    1662.5373   -763.82927    298283.57    15.278925 
 5159500    1505.9251   -759.80984    287986.42    15.319112 
 5160000     1546.341   -751.09103     290080.9    15.718092 
 5160500    1602.4104     -765.333    279389.55    15.436615 
 5161000    1496.9445    -757.3564     292255.7    15.418875 
 5161500    1543.8739   -757.02595     302127.8     15.25079 
 5162000    1542.4701   -759.32628    303914.41    15.176991 
 5162500    1615.4661   -756.90856    322029.63    14.986162 
 5163000     1606.841   -758.49302    318161.34    15.012858 
 5163500    1520.3579   -763.45602    303586.89    15.129492 
 5164000    1425.5012   -763.71856     299169.9    15.149739 
 5164500    1511.9129   -767.63075    295565.22    15.176674 
 5165000    1417.2925   -765.45143    288076.85    15.254162 
 5165500    1585.3076   -766.76217    291346.74    15.097885 
 5166000    1454.7081    -764.5863    290731.69    15.151517 
 5166500    1565.5028    -758.9484     300839.2    15.301163 
 5167000    1393.3551   -758.35803    311619.17    15.085829 
 5167500    1717.4127   -755.42914     311760.4    15.218669 
 5168000    1558.3297   -741.66101    310289.45     15.73205 
 5168500    1430.8443   -737.73345    296487.22    16.259527 
 5169000    1543.2147   -737.82475     300368.6    16.157175 
 5169500    1497.8889   -734.06346    311653.57    16.276983 
 5170000    1555.7767   -734.35242    296903.64     16.91687 
 5170500    1370.8395   -733.26802    304874.45    16.257509 
 5171000    1437.0165   -734.39852     302659.4    16.561414 
 5171500    1583.7491   -736.96359    294457.44    16.864847 
 5172000    1409.7379   -733.82792    295534.27    16.846741 
 5172500    1534.6618   -728.30757    304304.54    16.838884 
 5173000    1475.2188   -737.28896    296002.11    16.588633 
 5173500    1489.8451   -730.36719    310311.58    16.536175 
 5174000    1432.9257   -730.54432    302717.16    16.773244 
 5174500     1510.811   -744.34137    279786.56    16.781447 
 5175000    1534.3546   -732.12015    305137.21    16.728847 
 5175500    1441.4209   -734.02875    297476.17    16.692256 
 5176000    1567.7589   -729.04953    309758.25    16.504051 
 5176500    1449.1883   -730.31018    316326.89    16.360318 
 5177000    1600.1228   -745.12052    288907.22     16.24705 
 5177500    1492.5468    -751.2518    285335.52    15.719663 
 5178000    1426.3506   -739.90834    295188.94    16.238513 
 5178500    1457.6994   -738.11289    307513.19    16.153292 
 5179000     1540.483   -747.99894    288725.04    15.887626 
 5179500    1560.3555   -758.03107    287919.14    15.557605 
 5180000    1658.7158   -734.91292    318598.68    15.992238 
 5180500    1520.1223   -744.75411    306295.33    16.012053 
 5181000    1498.7433   -739.82509     289038.6    16.700336 
 5181500    1304.0098   -735.25837    303042.23    16.473683 
 5182000     1509.619   -739.41655    293814.36    16.948043 
 5182500    1530.7487   -726.32252    317728.64    16.730958 
 5183000    1530.4476   -737.06091    295726.56    16.844997 
 5183500     1473.181   -743.51259    289807.01    16.457372 
 5184000    1453.8901   -730.95993    319029.17    15.996549 
 5184500    1605.0705    -735.8192    302361.19    16.329858 
 5185000    1461.4019   -730.55583    295441.76     16.84809 
 5185500    1451.4699   -732.30199    315695.63    16.212856 
 5186000    1323.3029   -731.44378    320481.93    15.963193 
 5186500      1403.92   -746.39208    300241.66    15.633437 
 5187000    1443.2463   -750.95872    300574.12    15.577832 
 5187500    1530.0519   -738.20637    313281.59    15.742293 
 5188000    1554.7542   -737.72831    315281.85    15.726219 
 5188500    1530.1583   -749.68137    302375.32    15.633755 
 5189000    1549.0691    -756.7318    278965.71    15.778939 
 5189500    1501.8939   -738.77116     298749.7    16.186489 
 5190000    1467.6474   -738.86118     286877.8      16.4413 
 5190500    1422.3202   -732.93945    298893.95    16.860328 
 5191000    1478.0862   -727.97739    317702.52    16.565697 
 5191500    1479.4963   -735.75677     295278.6    16.467321 
 5192000    1480.1001    -744.6297    296070.36    16.020495 
 5192500    1537.8656   -749.14585    294906.34    15.805648 
 5193000    1544.2052   -755.78407    286082.79     15.62353 
 5193500    1500.3353   -750.90875    278740.13    15.914383 
 5194000     1576.386   -730.66181    308894.76    16.427732 
 5194500    1519.2466   -735.95295    299086.14    16.527389 
 5195000    1553.7969   -743.45087    281677.82    16.519677 
 5195500     1605.722   -730.72573     308022.6    16.532908 
 5196000     1517.248   -748.50483    287488.77    16.120311 
 5196500    1370.2043   -732.51993    305655.96    16.460698 
 5197000    1545.6484   -736.17309    295728.21    16.972053 
 5197500    1635.2959   -723.33972    325303.15    16.748752 
 5198000    1438.3027   -737.65778    292962.43    16.666267 
 5198500    1577.8842    -734.1101    300736.06    16.593786 
 5199000    1464.2671   -734.77299     302411.8    16.424138 
 5199500    1456.0873   -749.79355    286825.25    15.895937 
 5200000    1453.4448    -753.1233    294429.46     15.57667 
 5200500    1494.5337   -761.16569    311438.33    15.002144 
 5201000    1365.6759   -757.24661    315025.71    15.091007 
 5201500    1509.3976   -754.51207    315245.16    15.120128 
 5202000    1461.9446   -749.80122    302336.73    15.690421 
 5202500    1382.2175   -751.18673     294398.9    15.617571 
 5203000    1455.1428    -758.0129    272103.51    15.791351 
 5203500    1431.1452   -766.31511    290192.42    15.240715 
 5204000    1527.8347   -756.07852    303261.27    15.239089 
 5204500    1605.9793   -756.63287    319228.65    15.015779 
 5205000    1597.3168   -745.65486    319517.18    15.385156 
 5205500    1460.3895   -745.75441    301097.98    15.667788 
 5206000    1442.5987    -747.5658    294212.14    15.847749 
 5206500    1527.7931   -756.96645    284253.56    15.649776 
 5207000    1479.0046   -772.41875    276001.83    15.159235 
 5207500    1374.5542    -762.0555    298054.43    15.061915 
 5208000    1508.7623   -758.98888    316277.88    15.029949 
 5208500     1632.757   -743.42414    321100.82    15.564323 
 5209000    1555.1903   -748.48839    298386.02    15.779763 
 5209500    1429.3457   -766.06589    286907.91     15.23374 
 5210000    1329.9598   -764.01986    292663.76    15.162972 
 5210500    1409.0236   -766.03009    291104.47     15.34391 
 5211000    1369.6362   -750.76873    285199.68    15.659302 
 5211500    1359.8013   -741.12877    295951.55    16.230967 
 5212000    1512.3502   -743.23666    298126.26    16.198954 
 5212500    1516.4425   -735.95136    303021.59    16.470455 
 5213000    1559.5346   -736.76775    299538.67     16.34441 
 5213500    1526.7254   -745.53115    292679.07    15.958346 
 5214000    1504.2273   -750.26287    278216.62    16.205314 
 5214500    1409.7862   -745.94869    293542.69    16.034398 
 5215000     1564.452   -741.22621    293671.07    16.129611 
 5215500    1470.1856   -738.07242     311138.6    16.123039 
 5216000    1420.2864   -750.09993    284231.16    15.822632 
 5216500     1552.639   -763.71229    281700.11    15.546151 
 5217000    1455.2095   -762.55158    295529.94    15.239223 
 5217500    1598.5795   -762.22451    304120.76    15.197835 
 5218000    1454.5093   -755.21286    314787.54    15.061483 
 5218500     1542.875   -754.37008     320808.6    15.169795 
 5219000    1470.4589   -757.51486    312328.93    15.077383 
 5219500    1511.9344   -758.15139    296158.78    15.146698 
 5220000    1580.0623    -757.5629     279729.9    15.599533 
 5220500    1494.0261   -761.73013     277485.6    15.599738 
 5221000    1525.2968   -765.33887    296952.15    15.035828 
 5221500    1529.9103   -759.78876    302336.91    15.156567 
 5222000     1444.094   -761.76099    305604.05    15.049466 
 5222500    1544.5917   -751.18653    319056.57    15.152336 
 5223000    1543.9345    -760.8495    310021.47    14.999091 
 5223500    1602.1475   -741.74852    308689.55     15.76741 
 5224000    1546.7655   -746.40594    291195.95    16.168782 
 5224500    1399.1154   -728.11769    321636.25    16.037055 
 5225000    1570.1856   -731.81783    321591.99    16.102719 
 5225500    1492.4503   -742.62868    282955.27    16.393041 
 5226000    1434.5471   -736.63004    298410.06    16.842288 
 5226500    1416.6423   -730.01032    299950.59    16.730647 
 5227000    1572.5863   -726.83528    313299.77    16.872662 
 5227500    1569.7482   -725.59647    315042.06    16.970298 
 5228000    1437.4204   -737.49012    287880.19      16.8433 
 5228500    1533.1136    -730.9838    304708.42    16.735215 
 5229000    1383.9935   -735.51066    292747.81    17.078046 
 5229500     1592.368   -733.61472    306432.69    16.632067 
 5230000    1495.1365   -733.81361    300474.47    16.954836 
 5230500    1472.1981   -740.88383       292835    16.459657 
 5231000    1544.9947   -732.66094    302790.75    17.097858 
 5231500    1567.5002   -736.00016    291652.25     16.91249 
 5232000    1569.7542   -728.90167    318155.86    16.744617 
 5232500    1628.3481   -737.38259    299555.64    16.555304 
 5233000    1493.8184   -736.74638    283351.75    16.841381 
 5233500    1508.5445    -729.3102    308194.08    16.742128 
 5234000    1582.8518   -725.62887     316025.2    16.946853 
 5234500    1501.1351   -729.37732    307224.33    16.814319 
 5235000    1485.5175   -737.16496    281177.91    16.950012 
 5235500    1323.7072   -727.81322    310127.12    16.953595 
 5236000    1476.5392   -731.85236    304458.74    16.721293 
 5236500    1389.2366   -735.30828    287512.39    16.898704 
 5237000    1484.8388   -730.05403    309955.86    16.426164 
 5237500    1407.4508   -732.04076    299262.73    17.161547 
 5238000    1528.1598   -733.87046    296896.14    16.796998 
 5238500    1513.7842   -736.09058    299617.66    16.923591 
 5239000    1363.6208   -733.91949    295829.98    16.930732 
 5239500    1403.8167   -743.62583    276841.25    16.815836 
 5240000    1412.0321   -730.37956    319367.58    16.435344 
 5240500    1375.6231    -738.9405    290423.08      16.6458 
 5241000    1424.2968   -724.93923    314101.78    16.772289 
 5241500    1505.8547    -726.6184    318609.86    16.664475 
 5242000    1539.0144   -730.90982    303398.99    16.818626 
 5242500    1485.8743   -737.35251    294426.77    16.761564 
 5243000    1490.8649   -728.36984    308323.56    16.552334 
 5243500    1544.8447   -727.70652    318954.69    16.819422 
 5244000    1480.3845   -733.77975    304894.26    16.699689 
 5244500    1451.0458   -739.95152    277800.48    16.674376 
 5245000    1560.4229   -728.72113    309691.02    16.769745 
 5245500    1709.0513   -740.80154    291161.73    16.754066 
 5246000    1493.5906   -732.23563    303046.55    17.004393 
 5246500    1473.1142   -721.35652    333870.23    16.779404 
 5247000    1451.9552   -734.38826    296338.13    16.912669 
 5247500    1501.8427   -732.83536    294069.16     16.98713 
 5248000    1519.8622    -736.0715    297864.58    16.439137 
 5248500    1485.7257   -739.81692     280906.1    16.735295 
 5249000    1493.8323   -741.70822       305295    15.983839 
 5249500    1702.5732   -744.94069    301044.08    15.862231 
 5250000    1394.5194   -743.22639    276224.16    16.406811 
 5250500     1563.175   -733.77146    310920.32    16.265337 
 5251000    1593.7363   -737.02036    315183.53    15.867975 
 5251500    1675.8319   -748.16803    305061.55    15.544051 
 5252000    1462.1578   -744.42777    303591.82    15.757113 
 5252500     1512.922   -740.28469    287730.59    16.219318 
 5253000    1404.0239   -732.01673    310956.02     16.56822 
 5253500    1490.0172   -728.98908    312427.54    16.532124 
 5254000    1563.6753   -733.28877    297203.29    16.703726 
 5254500    1508.0027   -730.23876    312414.53    16.772327 
 5255000    1501.4577    -728.2118    316873.92    16.507812 
 5255500    1553.6852   -733.08923    298411.69    17.034205 
 5256000    1338.4431   -737.28535    285016.39    16.577752 
 5256500    1463.9444   -736.57942    291571.84    16.921663 
 5257000    1411.2195    -729.2766    309917.97    16.728097 
 5257500      1443.37   -730.12633    308180.21    16.613955 
 5258000    1526.0061   -741.39154    298056.89    15.996208 
 5258500    1578.6547    -741.5317    316045.58    15.747363 
 5259000    1424.3795   -736.44908     322453.6    15.779041 
 5259500    1272.3993   -732.60737    306803.46    16.201586 
 5260000    1431.9457   -745.14773    286822.48    16.105345 
 5260500    1506.2709   -728.54358    310661.71    16.559003 
 5261000     1619.312   -727.46404    308834.78     16.72875 
 5261500    1475.3786   -736.47987    288940.64    16.675674 
 5262000     1399.229   -733.63065    297760.01    16.931396 
 5262500    1456.5576   -724.74396    311814.22    16.822727 
 5263000    1693.6614   -731.28339    315777.07    16.782627 
 5263500    1428.5041   -735.67924     288697.3    16.859896 
 5264000    1558.1582   -736.04194    291152.98    16.989739 
 5264500    1423.1039    -739.1562    294139.16    16.514629 
 5265000    1524.5953   -733.47128    297396.67    16.572415 
 5265500    1343.0657   -732.65165    303653.04    16.903704 
 5266000    1475.1956   -731.82159    313506.57    16.205755 
 5266500    1468.3951   -730.95538    316990.95    16.102605 
 5267000    1437.4503   -743.04228    291579.79    16.128214 
 5267500    1584.9866   -747.10871    296205.95    15.672684 
 5268000    1394.9352   -740.55142    313540.87     15.73137 
 5268500    1462.2322   -734.71813    314038.11    16.087219 
 5269000    1488.2351   -737.39755    294611.15    16.433854 
 5269500     1609.771   -733.87975    296069.41    16.730146 
 5270000    1432.1189   -724.94215       324193    16.526686 
 5270500    1442.1065   -740.82359    281980.44     16.65697 
 5271000    1459.6943    -731.4213    306666.33    16.489146 
 5271500     1565.307   -733.45668    305071.92    16.818981 
 5272000    1515.4969   -735.96778    294037.41    16.501467 
 5272500    1399.8809   -733.70163    290182.97    16.765065 
 5273000    1486.1463   -725.67199    307116.39    16.763925 
 5273500    1480.6896   -734.71118    297430.64    16.576221 
 5274000    1448.9484   -747.59818    280601.14    16.166174 
 5274500    1477.0835   -750.88474    298392.54     15.61481 
 5275000    1435.4903   -757.88496     305888.4    15.178463 
 5275500    1605.0347    -759.7117    310787.63    15.074447 
 5276000    1429.6857   -760.35014    310092.12     14.98423 
 5276500    1570.5381   -759.32414    297565.83    15.308279 
 5277000    1472.6406   -767.38581    285110.75    15.092786 
 5277500    1502.8492   -760.98227    284537.77    15.493898 
 5278000     1514.654   -761.30169    298224.73    15.083547 
 5278500     1682.055   -761.79811    303280.21    15.096239 
 5279000    1363.9271   -760.08516    303977.55    15.140182 
 5279500    1474.0385   -762.78886    297218.77    15.115478 
 5280000    1491.9481     -769.364    283924.16     15.19925 
 5280500    1417.4108   -767.95114    283565.94    15.228203 
 5281000    1585.2094   -766.30156    281266.29    15.356801 
 5281500    1395.0819   -761.60413    303365.95    15.028037 
 5282000    1527.6554   -758.69912    310029.68    15.249609 
 5282500    1368.3118   -757.44586    315005.48    15.049354 
 5283000    1456.8832   -763.09207     298637.3    15.164801 
 5283500    1480.3058   -765.24395    294606.94    15.050824 
 5284000    1430.9284   -767.48404    283411.42    15.289179 
 5284500    1512.4359   -760.06053    278358.22     15.54134 
 5285000    1488.8177   -756.49062     290905.9    15.567096 
 5285500    1490.0248   -751.96172     299510.2     15.35808 
 5286000    1515.2853   -752.89411     319808.8    15.090648 
 5286500     1507.489   -753.24004    322808.58    15.070778 
 5287000    1514.0501   -755.92798    316192.38    14.972316 
 5287500    1448.1222   -762.70839    303931.66    15.142913 
 5288000    1558.8539   -759.65878    293801.11    15.396713 
 5288500    1601.9581   -768.79001    292450.84    15.058037 
 5289000    1475.4923   -757.59109    299646.55    15.403104 
 5289500    1380.9268   -762.33777    291243.98    15.134875 
 5290000    1532.6544   -755.80641    288176.91     15.61845 
 5290500     1500.018   -758.59162    285069.08    15.627912 
 5291000    1325.8137    -756.8011    301529.51    15.181137 
 5291500    1433.4938   -762.16682    304012.23    15.200885 
 5292000    1616.2517   -752.40908    315469.55    15.192359 
 5292500    1536.8195   -744.75465    331592.04    15.302956 
 5293000     1418.915   -753.86014    317518.48     15.04113 
 5293500    1660.8403   -762.98244    307944.93    15.013454 
 5294000    1535.1672   -765.63221    293778.78    15.130767 
 5294500    1378.9844   -771.69981    274133.55    15.300752 
 5295000    1460.6359   -765.70765    279799.69    15.436773 
 5295500    1494.8682   -768.26718    282552.64    15.080074 
 5296000    1386.7862   -760.80699    292625.38    15.336877 
 5296500    1369.4175   -761.96615    301533.04    15.042495 
 5297000    1548.2321   -750.13727    322685.62    15.200015 
 5297500    1477.2429   -745.14757    313969.09    15.480534 
 5298000    1571.9793   -755.10559    305411.39    15.350074 
 5298500    1479.0228   -765.06827    299542.08     14.95537 
 5299000    1534.3703   -754.00296    292599.36    15.638742 
 5299500    1382.8352   -764.68281    291604.18    15.401914 
 5300000    1430.6446   -766.66527     286086.8    15.137429 
 5300500    1587.2703   -763.60855    289642.62    14.948527 
 5301000    1506.7146   -749.91403     303427.2    15.508568 
 5301500    1523.6677   -766.41362    300240.09    15.049074 
 5302000    1517.2319   -759.14248    301252.87    15.361599 
 5302500     1626.525   -754.30772    294623.77    15.564635 
 5303000    1572.8948   -755.07927    274544.68    15.918859 
 5303500    1425.5729   -737.63123    298751.25    16.342069 
 5304000    1546.5048   -725.47363    319291.18    16.411036 
 5304500    1496.4195    -741.2943     279310.1    16.843726 
 5305000    1567.5511   -734.50438    299515.52    16.714596 
 5305500    1516.8808   -738.50186    302174.72    16.435628 
 5306000     1397.869   -745.44227    269274.97    16.930118 
 5306500    1491.4278   -727.01483    311387.81    16.765063 
 5307000    1518.2136   -723.67352    319782.46    16.916995 
 5307500    1360.3233   -735.75907    293298.27     16.46974 
 5308000     1449.321   -743.07722    274438.36    16.709609 
 5308500    1519.2661   -729.48223    313772.31    16.474371 
 5309000    1660.1844   -735.32413    300245.12    16.641452 
 5309500    1461.8469   -738.90778    299265.96    16.155411 
 5310000    1586.8095   -739.39101    307799.89    15.820022 
 5310500    1562.2154   -749.23174    323348.23    15.398459 
 5311000    1560.1825   -754.68099    312738.44    15.222985 
 5311500    1451.6627   -760.63046    297643.08    15.299846 
 5312000    1537.7756   -766.74535    278328.83    15.114039 
 5312500     1523.533   -765.68341    291757.48    15.133689 
 5313000    1518.9697   -763.72996    295190.93    15.127602 
 5313500     1489.018   -747.90242    304713.66    15.643397 
 5314000    1581.0129   -744.20544    289801.66    16.415116 
 5314500    1469.2707   -731.98064    304179.06    16.720178 
 5315000    1394.4381   -744.27464    281525.57    16.620285 
 5315500    1595.2467   -733.60296    306692.47     16.30232 
 5316000    1591.5155   -741.31474    303916.31    15.986976 
 5316500    1321.1182     -744.499    284390.23    16.242354 
 5317000    1484.1065   -733.17121     302102.5    16.607578 
 5317500    1555.3208   -728.71515    311589.26    16.930056 
 5318000     1448.456   -732.07263    304207.42    16.737337 
 5318500    1481.0476   -739.35082    285292.57    17.032108 
 5319000     1444.899   -746.28923    271581.29    16.829797 
 5319500    1441.3536   -726.95443    309706.15    16.919796 
 5320000    1434.8521    -733.5117    304603.65    16.478599 
 5320500    1606.5508   -738.42111    295066.13    16.710449 
 5321000    1582.0219   -740.87921    286178.77    16.959773 
 5321500    1365.3458   -728.20383    316199.88    16.802172 
 5322000    1477.2496   -730.81476    309127.44    16.823039 
 5322500    1430.3377   -737.07523    289302.87    16.882692 
 5323000    1479.7991   -734.28289    293661.71    16.897192 
 5323500    1491.1735   -734.70565    300242.82    16.668993 
 5324000    1520.2733   -734.06867    297995.47     16.78077 
 5324500    1569.1023   -734.42396     297701.6    16.936581 
 5325000    1509.0047   -736.47409    284617.88    16.707486 
 5325500    1503.6774   -733.16818    300677.02    16.540598 
 5326000    1426.4792    -723.1307    318156.35    16.755986 
 5326500    1353.5801   -738.27058    279460.17    16.970599 
 5327000    1666.7174   -738.72872    291399.47    16.953086 
 5327500    1520.7746   -736.97959    291320.48    16.809264 
 5328000       1577.3   -727.41074    313292.85    16.921431 
 5328500    1466.2932   -730.62195    307867.84    16.591672 
 5329000    1439.7872   -735.38439    295722.45    16.972692 
 5329500    1463.5271   -731.72964    304443.78    16.706228 
 5330000    1451.3843   -734.20305    291032.11    17.029389 
 5330500    1442.0369   -732.66045    311768.41    16.501054 
 5331000    1553.7275   -731.59049    311034.69    16.592845 
 5331500    1460.3604   -746.29072    283786.07     16.38552 
 5332000    1410.0455   -738.45573    308617.27    16.066117 
 5332500    1478.0201   -737.38175    306602.24    16.192611 
 5333000    1428.1076   -760.13094    292970.34    15.448972 
 5333500    1469.6865   -756.61624    294200.68    15.345587 
 5334000    1411.0738   -759.29192    297559.15    15.168764 
 5334500     1453.477   -754.55559    307135.26    15.235035 
 5335000    1524.5145   -755.64019    312568.87     15.07472 
 5335500    1565.4357   -762.83695    307454.89    15.128182 
 5336000    1530.3038    -754.7201    319591.03    15.076965 
 5336500    1424.9628   -751.75055    309790.95    15.187736 
 5337000    1431.8834   -759.93212    302323.99     15.37395 
 5337500    1663.9672   -762.08275    295478.99    15.116827 
 5338000    1442.4173    -763.8446    288563.78    15.349524 
 5338500    1519.2387   -754.49972    295310.18    15.380964 
 5339000     1556.491    -756.5253    311082.79    15.139955 
 5339500    1472.2017   -760.12745    307898.24    15.026955 
 5340000    1605.6316   -748.33954    317976.17    15.385267 
 5340500    1615.6806    -748.4163    290967.59    15.750912 
 5341000    1467.8312   -758.30377    288509.69    15.441262 
 5341500    1472.2326   -760.87775    298226.95    14.907525 
 5342000    1448.0827   -756.04057     301168.9    15.335675 
 5342500    1482.9095   -760.34364    298262.67    15.116831 
 5343000    1482.6864    -767.9712    289457.89    15.062165 
 5343500    1501.0967   -754.02577    301790.02    15.467524 
 5344000    1454.9812   -750.56516    301727.34    15.681359 
 5344500    1380.7401    -742.0611    314046.42    15.537835 
 5345000    1433.6506   -737.57599    310643.86    15.932286 
 5345500    1449.1428   -745.70719    289675.31    16.188019 
 5346000    1399.9232   -737.62399    302199.76    16.105111 
 5346500    1535.6015    -739.2036    314380.31    15.701606 
 5347000    1493.2296   -744.44354    302930.47    15.788936 
 5347500    1403.6673    -753.8228    270606.84    16.040167 
 5348000    1459.2431   -745.40215    283987.06    16.268774 
 5348500    1476.9451   -734.80018       302857    16.559463 
 5349000    1361.9067   -728.83073    305254.58    16.487915 
 5349500    1586.5662   -729.77371     312557.9    16.877571 
 5350000    1433.5378   -727.03245    309191.37    16.826635 
 5350500    1425.6735   -738.07779    282365.39    16.911356 
 5351000    1489.8555   -724.01644    313021.83    17.015099 
 5351500    1520.1643   -723.74204    324147.66    16.803034 
 5352000    1459.4948   -731.93153    308834.45     16.88974 
 5352500    1548.1121   -743.01267    282243.42    17.179521 
 5353000     1525.827   -733.23904    304766.02    16.853124 
 5353500    1546.4635   -725.71911       315463    16.682115 
 5354000    1428.7396   -738.46663       290224    16.565343 
 5354500    1488.1322    -735.5565    290317.42    16.950146 
 5355000     1669.626   -734.84842    304399.36    16.659042 
 5355500    1608.9134   -733.88787    296158.36    16.700966 
 5356000    1420.4147   -731.99499    304533.18    16.999606 
 5356500    1564.7528   -733.75875    298912.92     17.18261 
 5357000    1568.6656   -738.49894    290882.77    16.908567 
 5357500    1528.4209    -740.6846    287285.81    16.760535 
 5358000    1453.4594   -723.30169     319633.5     16.82122 
 5358500    1487.9165   -724.38718     316207.5    16.865567 
 5359000    1519.7975   -728.60499    306380.62    16.762904 
 5359500    1515.1081   -736.56829    289695.35    16.643648 
 5360000    1432.2395   -728.76688    308039.61    16.394474 
 5360500    1509.1133   -735.64966    317519.39    16.022161 
 5361000    1545.0894   -746.80177    303699.45    15.755445 
 5361500    1485.1003    -751.1941    273668.34     16.02843 
 5362000    1412.7556   -741.09912    294521.98    16.336486 
 5362500    1627.5992   -729.21967    314508.21    16.596136 
 5363000    1470.2978   -738.77983    298222.59     16.40014 
 5363500    1482.6825   -751.24661    278839.92    16.090642 
 5364000    1601.7134   -744.27295    298905.01    15.964232 
 5364500    1533.7338   -725.05139     323383.4    16.476655 
 5365000    1424.5394   -735.80947    304267.05    16.387562 
 5365500    1501.7723   -735.13249    286765.28    16.883909 
 5366000    1476.4444   -731.13777    312362.98    16.425512 
 5366500    1677.6399   -742.81107    299473.27    16.074194 
 5367000    1420.1402   -758.00705    286376.36    15.522086 
 5367500    1401.6141   -761.65418    291351.63    15.307307 
 5368000    1488.3113   -770.17554    273461.86    15.004969 
 5368500    1447.7799   -757.46559     298413.5    15.388287 
 5369000    1516.4635   -764.37119    296503.88    15.048698 
 5369500    1415.8012   -754.79873    303389.51    15.367281 
 5370000    1550.0112   -763.38033    288857.98    15.228189 
 5370500    1451.3894   -762.65524    293931.45    15.195467 
 5371000    1456.3578   -759.31961    298995.25    15.266786 
 5371500    1544.1152   -751.99901    314089.85    15.419915 
 5372000    1587.0647   -737.63378    317827.01    15.796543 
 5372500    1601.1183   -752.99336    292561.82    15.743465 
 5373000    1598.6341   -755.19852    281060.79    15.802536 
 5373500    1427.9493    -743.4408    293833.42    16.242489 
 5374000    1585.8961   -728.73617    317267.82    16.603006 
 5374500    1609.0542   -739.56517    295175.93    16.496837 
 5375000     1560.372   -732.04283    298183.78    17.007154 
 5375500    1458.1824   -725.64877    321493.93    16.374965 
 5376000    1376.8168   -730.52415    299919.05    16.542946 
 5376500    1426.0003   -743.97494    282287.35    16.710945 
 5377000    1506.6936   -732.89385    304408.99    16.491046 
 5377500    1551.9517   -731.62051    314264.48    16.592153 
 5378000    1593.3354   -724.84528    315134.92    16.824377 
 5378500    1558.2857   -751.27641    264415.16    16.624706 
 5379000    1537.2022   -734.42581    298431.39     16.61825 
 5379500     1386.338   -732.48834    305319.47    16.496644 
 5380000    1437.6271   -741.51524    281097.48     16.66889 
 5380500    1511.4077    -736.5809    288546.39    16.995938 
 5381000    1544.2481   -736.39885    295196.58    16.907045 
 5381500    1558.7429   -730.12393    304880.02    16.796848 
 5382000    1509.0608   -723.10511    315706.45    17.003364 
 5382500    1505.8362   -726.99925     314054.7     16.56431 
 5383000    1597.2888   -739.97966    295434.18    16.152339 
 5383500    1581.0174   -741.42298    292619.11    16.078494 
 5384000    1558.4055   -734.19823    303993.69    16.431629 
 5384500    1414.8714   -735.44446     289117.8    17.071078 
 5385000    1629.5045   -732.95189    299528.72    16.640992 
 5385500     1463.896   -726.35959    309586.64    17.025269 
 5386000    1417.4215   -726.54566    317698.98    16.865808 
 5386500    1567.1562   -737.62373    287125.77    16.911574 
 5387000    1345.7004   -741.73369    268888.95    17.102857 
 5387500     1550.635   -739.73258    288566.61    16.972584 
 5388000     1548.538   -731.50701    314275.11    16.735169 
 5388500     1390.788   -735.14979    302937.27    16.532442 
 5389000     1323.255   -738.85264    293285.74    16.377575 
 5389500    1493.1536   -729.58189    307067.67    16.830194 
 5390000    1480.1263    -732.0121    311748.59    16.438068 
 5390500    1546.6022   -732.77909     305398.2    16.599587 
 5391000    1482.1132   -738.61712    284902.12    16.957339 
 5391500    1488.4235   -733.77175    299537.57    16.510737 
 5392000     1619.356   -735.43197    290373.18    16.839038 
 5392500    1409.8039   -732.30459    300004.56    16.786487 
 5393000    1461.8619   -727.48504    311012.47    16.924919 
 5393500    1582.5269   -732.68197    297171.09    16.771537 
 5394000    1400.3515   -742.62773     276416.5    16.887385 
 5394500    1559.9296   -738.78357    287813.98    16.674504 
 5395000    1726.5416   -733.48622     313973.2    16.371417 
 5395500    1575.5882   -740.20044    301097.54    16.061846 
 5396000    1484.2711   -758.93765    299171.27    15.363707 
 5396500     1387.289   -761.82252    290554.41    15.177694 
 5397000    1464.4198   -765.65895    288691.19    15.091562 
 5397500    1472.4439   -765.85253    290158.61    14.987614 
 5398000    1482.8472   -766.82628    294292.23    15.089242 
 5398500    1396.7095   -744.72855    319814.85    15.478471 
 5399000    1516.2744   -748.37646    299636.16    15.690996 
 5399500    1488.9358   -755.53058    292188.31    15.535967 
 5400000    1605.4758   -743.40151    302928.46    15.966698 
 5400500    1502.1833   -733.96222    304536.61    16.601561 
 5401000    1407.8217   -734.37352    302069.96    16.812591 
 5401500    1461.0697   -735.78354    305457.36    16.510057 
 5402000    1421.6272   -736.19706    293068.21    16.730007 
 5402500    1404.2594   -742.21557    284150.47    16.462476 
 5403000    1457.4036   -723.33193     315448.4    16.921728 
 5403500    1466.4178   -734.29725    301457.27    16.465716 
 5404000    1471.7393   -739.87837     300922.6    16.171942 
 5404500    1428.5795   -744.96078    304334.49    15.801267 
 5405000    1491.8596   -752.96495     307599.3    15.280898 
 5405500    1602.7244   -763.18916    304985.01    15.024431 
 5406000    1475.9902   -765.30139    286612.81     15.37977 
 5406500    1552.8404    -750.6902    289853.28    15.844649 
 5407000    1431.2297   -744.64252    296935.03    16.052207 
 5407500    1624.3289   -729.50243    313930.73    16.571678 
 5408000     1411.618   -726.56475    316498.06    16.428343 
 5408500    1532.9146   -732.71651    296689.29    16.893951 
 5409000    1558.4755   -733.51374    310173.92    16.284498 
 5409500     1406.514   -731.31348    304211.26    16.678116 
 5410000    1492.2149   -739.46593    294676.86    16.786633 
 5410500    1488.7426   -732.22781    295698.83    16.742263 
 5411000    1490.8409   -737.75676    287946.89    16.760408 
 5411500    1532.2376   -734.50879    295370.36    16.780135 
 5412000    1415.7876   -741.79611    284525.33    16.550146 
 5412500     1432.161   -741.06915    285131.69    16.499802 
 5413000    1597.4437   -733.67101     307686.7    16.656327 
 5413500    1394.8873   -735.57737     302074.1    16.781699 
 5414000    1653.9805   -738.69454     286034.7    16.965323 
 5414500    1574.3279   -733.86489    294556.11    16.898043 
 5415000    1514.2985   -736.04108    301144.46    16.589808 
 5415500    1584.6207    -738.8505    307763.92    16.145992 
 5416000    1525.2114   -733.64164    298762.85     16.76888 
 5416500    1550.8512   -731.74947    311248.66    16.591611 
 5417000    1643.6004   -736.44637    289533.59    16.715337 
 5417500    1550.8892    -738.6183    294249.93    16.676288 
 5418000    1517.1621   -729.50323    315698.88    16.684127 
 5418500    1642.2468    -728.2009    311742.72    16.808036 
 5419000    1477.1996   -737.44938    296149.59    16.663524 
 5419500    1649.0573   -737.83128    297650.12      16.8204 
 5420000    1522.9361   -741.49184    275874.98    16.808423 
 5420500    1551.0978   -732.38439    308404.39    16.866456 
 5421000    1500.4267    -727.8348    315856.34    16.850721 
 5421500    1418.4775   -737.35211     289956.7     16.53505 
 5422000    1536.3464   -737.72641    298475.31    16.643216 
 5422500    1489.6545   -732.30713    309131.78    16.618333 
 5423000    1669.7548   -731.83132    307672.36    16.671047 
 5423500    1474.9249   -732.26573    304259.69    16.820113 
 5424000    1460.9739   -736.19766    299716.36    16.445534 
 5424500    1498.7764   -742.53222    280008.52    16.955836 
 5425000    1494.4049   -732.56241    313562.08    16.455364 
 5425500    1533.6891   -731.76401    300454.45    16.832129 
 5426000    1419.4706   -732.09491    293878.12    17.082065 
 5426500    1534.1007   -739.71877    295738.38    16.654198 
 5427000    1388.1105   -727.52547     315546.3    16.840305 
 5427500    1526.5955   -733.17764    305182.58    16.665294 
 5428000    1552.0244   -732.27215    302010.77    16.975989 
 5428500     1513.518   -737.54233    298329.45    16.404626 
 5429000    1444.0523    -735.8085    302287.18    16.288685 
 5429500    1544.9976   -741.51754    283004.65    16.469087 
 5430000     1569.613   -730.62596    305516.85    16.832537 
 5430500    1496.8386    -739.6893    288068.37    16.512686 
 5431000    1531.8744   -731.02596    305812.61    17.039094 
 5431500     1574.719   -728.40724    311655.91    16.716278 
 5432000    1508.0897   -737.22383    287828.22    17.143591 
 5432500    1603.4398   -735.03334    295390.28    16.564382 
 5433000    1427.5429   -726.77168    311646.02    16.529108 
 5433500    1444.0199     -744.214    277107.08    16.600816 
 5434000    1463.3125   -738.59176    290600.78    16.631711 
 5434500    1532.9915    -731.5679    318965.32    16.512904 
 5435000    1507.4556   -732.11863    305119.54    16.536556 
 5435500     1368.329   -739.58123    278482.46     16.75806 
 5436000    1477.1111   -728.81172    307124.05    16.735277 
 5436500    1440.1837   -724.81558    323325.57    16.709069 
 5437000    1393.0228   -735.78169    304447.19    16.507482 
 5437500    1442.0927   -744.10882    277269.17    16.526566 
 5438000    1615.6143   -735.90799    305413.52    16.501201 
 5438500    1545.6609   -732.95105     298174.9    16.460905 
 5439000    1619.5065   -749.85261    283140.52    16.128092 
 5439500     1424.899   -731.57648     300559.1    16.608934 
 5440000    1483.6293   -733.21533    301653.26    16.449718 
 5440500    1644.3521    -731.8183    305931.78    16.675841 
 5441000    1613.6404   -737.55451     296946.8    16.647956 
 5441500    1575.3429   -731.31477    303197.37    16.695641 
 5442000    1439.3922   -740.02893    283238.05    16.907232 
 5442500    1460.1525   -733.21877    303285.12    16.641517 
 5443000    1534.2872   -727.01306    325987.91    16.128933 
 5443500    1344.7998   -744.52133    289386.04    16.202707 
 5444000    1396.3961   -736.95855       293487     16.59721 
 5444500    1401.8413   -734.36936    300807.19    16.870086 
 5445000    1451.7167   -734.13262    296501.66     16.71366 
 5445500    1516.6649   -728.64944    315693.27    16.415196 
 5446000    1612.4097   -730.00959    306880.05    16.918088 
 5446500    1611.8879   -741.02009    291561.81    16.475433 
 5447000     1351.344    -740.4368     288766.6    16.260602 
 5447500    1559.6539   -747.44963    294322.44    15.917152 
 5448000    1424.0649   -747.15195    310365.02    15.465585 
 5448500    1651.4955   -750.80886    307274.93    15.668305 
 5449000    1475.8277   -742.17252    316732.74    15.552637 
 5449500    1635.0199   -765.33899    302739.74    14.975923 
 5450000    1581.1733   -764.48845    298233.04    15.362738 
 5450500    1536.7427   -763.99712    287899.81    15.257636 
 5451000    1536.1981   -763.07413    291804.53    15.205829 
 5451500    1407.7593   -760.80572    298048.16    14.955015 
 5452000    1394.1138   -759.09203    299800.59    15.033744 
 5452500    1447.1868   -753.19957    308298.75    15.383721 
 5453000    1611.5497   -755.13815    312399.48    15.194031 
 5453500    1656.6922   -758.18953    315738.59    15.182499 
 5454000    1466.4418   -754.07157       308432    15.293466 
 5454500    1420.6146   -762.92719    291283.32    15.284912 
 5455000    1448.7998   -763.59443     284568.2    15.443011 
 5455500    1608.9685    -776.2294    274777.83    15.187715 
 5456000    1450.7638   -769.17861    288851.01    15.169985 
 5456500    1472.9006    -769.5673    292485.74    15.087768 
 5457000    1621.6208   -768.05785    274654.28    15.114341 
 5457500    1521.4548   -772.93901    280062.37    15.169481 
 5458000    1437.4877   -761.55261     297509.8    15.155615 
 5458500    1571.3919    -759.9411    315230.63     14.99892 
 5459000    1408.0825   -748.85758    321636.34    15.297774 
 5459500    1468.9922   -752.87345    310126.16    15.298465 
 5460000    1567.6195   -752.20739    306802.29    15.262535 
 5460500    1509.4159   -762.29622    296624.41    15.247217 
 5461000    1430.0963   -768.28548    278762.46    15.079969 
 5461500    1412.5494   -768.28874    278388.37    15.135439 
 5462000    1434.8855   -761.11274    293541.02    15.375871 
 5462500    1578.3393   -764.07363    284660.14    14.922883 
 5463000    1458.9117   -762.70555    294474.99    15.383878 
 5463500    1532.2516   -760.42625    297915.53    15.240659 
 5464000    1705.5861    -752.5338    299218.16    15.494804 
 5464500    1571.7582   -740.28061    307489.14    16.155459 
 5465000     1503.102    -742.4347    295788.76     16.09755 
 5465500     1609.528   -735.56919    300953.57    16.357679 
 5466000     1471.061   -737.21657    294660.89    16.588054 
 5466500    1520.2408   -731.02977     308211.6    16.439878 
 5467000    1528.6481   -735.26418    308167.82    16.142676 
 5467500    1541.1422   -740.11963    289167.27    16.660974 
 5468000    1415.9053   -731.18982     310534.1    16.487041 
 5468500    1554.8426   -739.85218    288796.58    16.506322 
 5469000    1531.6387   -731.30066    293681.68    17.027669 
 5469500    1542.2669   -727.73634    311302.04    16.450092 
 5470000    1452.0922   -738.07238    291451.41    16.541916 
 5470500      1479.35   -733.37884    305934.33    16.564758 
 5471000    1607.3694   -736.10631    299280.28    16.943863 
 5471500    1518.4402   -740.91296    285336.94    16.392489 
 5472000     1404.398   -742.77896    294083.65    16.185601 
 5472500    1557.6072   -736.00285    313986.37    16.109879 
 5473000    1387.4726   -750.98965    279252.11    16.123659 
 5473500    1642.0186   -749.58571    287708.88    15.879725 
 5474000    1555.6458   -757.59433    302697.57    15.335617 
 5474500    1433.3443   -753.81137    312266.91     15.21126 
 5475000    1482.7936   -749.78326    327202.43    15.187818 
 5475500    1374.3522   -746.75102    305368.21    15.727744 
 5476000    1450.8989   -761.60134    290107.01    15.366205 
 5476500    1418.3676   -767.69372    293539.91    15.066093 
 5477000     1403.028   -759.90981    304536.55      15.0903 
 5477500     1582.842   -758.52567     307857.6    15.330916 
 5478000    1370.7418   -761.21073    306299.54    14.948961 
 5478500    1488.7491     -754.801    313631.86    15.307584 
 5479000    1606.3279   -762.56567    304699.98    15.056517 
 5479500    1499.5743   -756.14562    301415.03    15.460706 
 5480000    1317.5688   -745.82294    293059.81    15.846089 
 5480500     1421.233    -754.3627     285763.6    15.536978 
 5481000    1490.7084   -747.28598    299857.98    15.797939 
 5481500    1500.3672   -757.02746    305822.55    15.278399 
 5482000    1477.7086   -740.68542    314090.13    15.537491 
 5482500    1575.1131   -743.07866    310304.63    15.661268 
 5483000    1495.6317   -757.62748     286788.1    15.568032 
 5483500    1470.3384   -759.04347    287956.97    15.393468 
 5484000    1458.1985   -763.21896    298592.52    14.999978 
 5484500     1478.673   -762.92856    302562.14    15.020071 
 5485000    1376.0491   -746.56675    321236.09     15.25816 
 5485500    1472.7875   -755.37028    317203.17    14.967441 
 5486000    1734.3287    -756.7432    307952.89    15.263299 
 5486500    1491.7372   -750.23946    306451.93    15.477863 
 5487000    1435.4256   -764.11651    296091.37    15.166736 
 5487500    1410.9676   -766.53538    285111.07    15.103055 
 5488000     1408.565   -767.78705    280983.38    15.289354 
 5488500    1352.1031   -761.32046    287463.71    15.353233 
 5489000    1474.4443   -758.52588    298897.25    15.283995 
 5489500    1623.6552   -759.69354    309498.76    15.143985 
 5490000    1584.2384   -756.94044    311977.51    15.204411 
 5490500    1591.9743   -749.51384    326382.72     15.16899 
 5491000    1416.6174   -751.11038    309678.81     15.28927 
 5491500     1518.789   -752.12771    302716.36    15.339234 
 5492000    1429.8968   -747.27152    292249.67    15.896628 
 5492500    1378.5074   -739.02508    290833.14    16.474093 
 5493000    1445.2535   -727.94885    307177.98     16.77145 
 5493500    1420.1315   -731.55217    297714.64    17.013802 
 5494000    1481.6094    -739.0048     286200.5    16.485606 
 5494500    1502.5953   -729.69661    302359.19    17.052399 
 5495000    1569.0358   -731.73372    312827.42    16.505768 
 5495500    1538.2008    -737.8041    299212.33    16.604434 
 5496000    1498.0489   -730.18787    304718.61    16.540445 
 5496500    1532.7102   -743.97061    300191.81    15.912438 
 5497000    1486.6841   -739.79909     318844.2    15.699009 
 5497500    1614.6658   -752.41023    322032.26    15.264035 
 5498000    1488.1892   -754.02575    316637.94    15.260027 
 5498500    1604.4602   -761.23991    307557.51    15.252871 
 5499000    1524.0095   -760.08147    305136.62    15.074664 
 5499500    1526.8167   -758.50151    292195.39    15.420915 
 5500000    1500.4361    -762.8622    288992.97    15.026145 
 5500500    1436.6032   -759.89695    290939.91    15.323633 
 5501000    1426.0994   -764.48645    285296.34    15.464571 
 5501500     1574.047   -769.57012    283988.55    15.209773 
 5502000    1526.6644   -763.97894    301715.84    15.168105 
 5502500    1634.4594    -751.7018    310927.14    15.350519 
 5503000    1448.3336   -755.29561    313525.36     14.95639 
 5503500     1558.679   -756.52027    315209.17    15.243319 
 5504000    1432.1505   -756.70426    309565.09     15.29403 
 5504500    1626.4574   -762.88421    289259.18    15.409081 
 5505000    1518.2251   -753.41396    290571.49    15.678589 
 5505500    1429.7621   -759.67669    291900.47    15.284336 
 5506000    1576.2079    -767.5102    286895.06     15.24682 
 5506500    1308.8614   -760.70643    295390.81    15.244002 
 5507000    1490.1512   -758.93338    306141.19    15.035298 
 5507500    1495.8726   -754.74913    312696.01    15.314979 
 5508000    1566.7704   -757.81542    315073.94    14.948737 
 5508500    1518.6885   -757.04266    319003.14    15.024431 
 5509000    1400.5294   -757.27583    303209.02    15.181703 
 5509500    1446.5915   -767.80958    281170.77    15.147033 
 5510000    1369.2694   -765.60384    282073.47    15.214169 
 5510500    1372.6824   -764.77593    294777.75    15.230123 
 5511000    1454.0473   -766.00068    301210.04     15.08983 
 5511500    1526.6256   -758.50517    312099.95    15.144534 
 5512000    1435.6529   -756.25201     296631.9    15.384938 
 5512500    1605.8864   -761.82945    294733.67    15.139075 
 5513000    1499.5089   -752.01399    300968.12    15.489763 
 5513500    1541.7474   -768.06086    292267.26    14.956212 
 5514000    1481.9819   -760.61695    294799.98    15.363766 
 5514500    1539.6204   -767.51534    283108.15    14.958291 
 5515000    1598.5313   -759.64852     289338.5    15.373351 
 5515500    1472.2322   -765.10641    293479.26    14.958814 
 5516000    1592.7843   -755.69086    297872.99    15.475518 
 5516500    1476.3377   -737.09198    307748.84    15.947575 
 5517000    1456.1124   -734.10316    312267.73    16.248032 
 5517500     1508.626   -736.52301    290375.25    16.773278 
 5518000    1428.5424   -734.19676    305381.51    16.637596 
 5518500    1533.9537   -734.11965    293803.91    16.973761 
 5519000    1522.4732   -740.02529    287151.55    16.709152 
 5519500    1566.7174   -730.31095     307713.5    16.991845 
 5520000    1477.3047    -732.6267     301019.5    16.580167 
 5520500    1538.0866   -736.20336    297222.59    16.595489 
 5521000    1441.2095   -723.68993    315389.97     16.92453 
 5521500    1401.0962   -735.72047    299412.15    17.186035 
 5522000    1436.8354   -740.23932    284759.39    17.135337 
 5522500    1370.8084   -741.20487     282597.4    17.111616 
 5523000    1541.5304    -735.6211    289531.65    17.182645 
 5523500    1497.8123   -734.90252    299936.79     16.55597 
 5524000    1561.6656   -736.06375    294090.65    16.394994 
 5524500     1325.269   -748.47497     296662.8    15.694019 
 5525000    1616.2161   -755.81336    307941.26     15.14217 
 5525500    1512.3403   -758.58009    315611.36    15.018517 
 5526000    1469.0004    -757.1349    306050.26    15.281273 
 5526500    1523.0762   -762.54633    286513.57    15.323321 
 5527000    1622.3472   -766.73158    279321.63    15.327121 
 5527500    1619.4429       -767.2    284745.92    15.337924 
 5528000    1455.1418   -756.04125    305279.25    15.350199 
 5528500    1498.0547   -759.26601    309394.56     15.24248 
 5529000     1526.902   -758.78016    305972.99    15.146037 
 5529500    1571.4235   -754.47367    311079.09    15.235314 
 5530000    1503.4745   -745.42193     303295.3    15.766987 
 5530500    1401.1832   -762.96684    293727.37    15.107929 
 5531000    1469.2128   -765.45341    289286.96    15.206873 
 5531500    1556.8958    -763.5459    290956.24    15.063579 
 5532000    1425.9396   -758.78641    298960.91    15.318056 
 5532500    1516.9993   -741.40658       315094    15.679323 
 5533000    1574.9056   -753.30359    303080.91    15.419409 
 5533500     1490.691   -765.70446    300324.53    15.001588 
 5534000    1445.0949   -765.73744    283967.84    15.434348 
 5534500    1494.1793   -771.97249    273400.07    15.169137 
 5535000    1422.2092   -759.51396    293241.77    15.295636 
 5535500    1439.4601    -763.8756    297961.26    15.017639 
 5536000    1301.1621   -759.53618    304517.37    15.193615 
 5536500    1546.5509   -756.97791    299806.27    15.392199 
 5537000    1663.4959   -771.08996    281404.48    15.178099 
 5537500     1516.886   -757.47757    295149.36     15.40418 
 5538000     1483.283   -743.41119    307447.54    15.713024 
 5538500    1529.1294   -738.50366    303626.61    16.096108 
 5539000    1618.5495   -736.53739    286754.23    16.920512 
 5539500    1540.2258   -730.68463    308237.59    16.676025 
 5540000    1587.4436   -734.49936    298079.54    16.632214 
 5540500    1509.7837   -733.81683     296399.8    16.995539 
 5541000    1534.5432   -743.13855    281544.32    16.445917 
 5541500    1597.3227   -750.56176    305468.19    15.614427 
 5542000    1378.6777   -742.68125    307916.06     15.74039 
 5542500    1570.0079   -746.56941    308846.23    15.591492 
 5543000    1657.3829   -747.00485    292351.69    16.164335 
 5543500    1520.3483   -735.25212    296829.91    16.532593 
 5544000    1505.7147   -726.47366    320545.85    16.824035 
 5544500    1359.3355   -730.87156    304326.89    16.510776 
 5545000    1521.5117   -743.53251    278858.94    16.828372 
 5545500     1443.893   -731.79447    302630.61    16.746226 
 5546000    1553.7962    -724.8177    320267.06    16.774563 
 5546500    1476.5606   -738.75112    292706.71    16.627596 
 5547000    1514.3117   -732.29759    302723.86    16.698052 
 5547500    1587.2171   -736.67279    287906.51    17.005488 
 5548000    1431.1535   -735.38939    289929.48    16.985093 
 5548500      1400.93   -738.88177     290890.9    16.667969 
 5549000    1551.8577   -735.21144    292207.22    16.576957 
 5549500    1666.3695   -726.30817    318014.66     16.70316 
 5550000    1539.9612   -734.03485    297455.64    16.775105 
 5550500     1414.424   -740.02294    278665.05    16.941415 
 5551000    1494.9998   -734.38495    303654.33    16.411878 
 5551500    1409.0053   -728.73521    302654.15     16.79441 
 5552000     1403.112   -736.44693    293020.79    16.684203 
 5552500    1613.7516   -733.66317    305248.86    16.738081 
 5553000    1429.4326    -738.7776    290656.12    16.720922 
 5553500    1518.7763   -729.51694    307127.53    16.883386 
 5554000    1545.1431   -735.74836    300541.29    16.432327 
 5554500    1560.0602   -735.41155    287253.47    16.968577 
 5555000    1412.0383   -731.70856    309674.48    16.483997 
 5555500    1545.6956   -733.08082    299894.32    16.899055 
 5556000    1457.1527   -734.26084    289831.42    16.986875 
 5556500    1646.0289   -736.40531    296569.07    16.973675 
 5557000    1555.6446   -735.17615    293979.51    16.745327 
 5557500    1489.5667   -728.53953    310974.15    16.923068 
 5558000    1535.7698   -733.61769    302213.17    16.785311 
 5558500    1373.3967   -735.91026    284317.45    16.752434 
 5559000    1451.9772   -736.30508    286712.97    16.892201 
 5559500    1586.3247   -730.07457    305563.36    16.862155 
 5560000    1503.5229   -731.17996    315158.43    16.330344 
 5560500    1480.2915   -737.11663    292834.47    16.743632 
 5561000    1410.1162   -731.83213    298653.85    16.916603 
 5561500    1641.5988   -735.44997    291883.06    16.802341 
 5562000    1523.5069   -731.20712    307674.24    16.713807 
 5562500    1472.7541   -751.83708    272399.36    16.295872 
 5563000    1414.0365   -739.02182    297866.24    16.179316 
 5563500    1576.2579   -741.82782    295245.28    16.077355 
 5564000    1615.5604   -735.38361    295078.33     16.57537 
 5564500    1301.3007   -729.87679    303266.06    16.787147 
 5565000    1365.4828   -736.97463    287708.79    16.851042 
 5565500    1462.3629   -740.98103    292103.91    16.181013 
 5566000    1471.8942   -740.92346    292773.36    16.133279 
 5566500    1625.3544   -729.52505    316260.32    16.598553 
 5567000    1438.4046   -735.07282    301101.94    16.485136 
 5567500    1447.7774   -745.91245    292191.74    15.933417 
 5568000    1509.8457   -743.52852    295300.03    15.912865 
 5568500    1524.7637   -754.59955    290287.79    15.500716 
 5569000    1588.6369   -749.34258    301202.76    15.810422 
 5569500    1647.0074   -740.45824    320522.75    15.726563 
 5570000    1543.1779   -755.69742    298233.56    15.482369 
 5570500    1496.3811   -767.10953    293929.91    15.184914 
 5571000    1445.7626   -764.19456     298830.9     15.18595 
 5571500    1438.4737   -764.34971    296571.94    15.124505 
 5572000    1416.9308   -753.24522    297906.37    15.493625 
 5572500    1638.5494   -748.65753    297621.66    15.802114 
 5573000    1483.9055   -745.88387    308724.81    15.679553 
 5573500    1708.9488   -756.43647    313606.42    15.062051 
 5574000    1471.4854    -760.8405       311130    15.013075 
 5574500     1437.363   -760.03086     301758.5    15.119076 
 5575000     1433.951   -768.34526    280044.86    15.267305 
 5575500     1429.792   -760.65195    293148.37    15.254052 
 5576000    1576.1963   -760.79658    296041.48    15.394566 
 5576500    1482.5928   -761.95744    302189.92    14.921417 
 5577000     1550.117   -758.04746    297985.48    15.428987 
 5577500    1543.7834   -760.42875    298354.88    15.025305 
 5578000    1603.6264   -761.57569    301995.21    15.197171 
 5578500    1483.4368   -753.13165    321635.87    15.058986 
 5579000    1596.8252   -750.28929     321757.8    15.275978 
 5579500    1604.8982   -752.47914    317209.32    15.325922 
 5580000    1335.4311   -759.79403    300529.49    15.174721 
 5580500    1528.0972   -760.87729    301471.88    15.092448 
 5581000    1507.9663   -757.35595    298931.15    15.508239 
 5581500    1500.3566   -753.36232    284878.29    15.751535 
 5582000    1480.2406   -766.69734    289562.49    15.041194 
 5582500     1510.232   -761.23629    297467.37    15.357594 
 5583000    1554.7032   -766.91809    294406.67    14.916725 
 5583500    1434.9496   -760.30647    297807.03    15.320582 
 5584000    1409.2628   -761.32811    299636.74     14.98348 
 5584500    1415.5986    -762.4944    301817.44    15.254729 
 5585000    1514.6476   -755.06611    299672.01    15.398345 
 5585500    1414.1095   -751.13442    297021.41    15.690962 
 5586000    1516.3184   -747.28372    292867.97     15.84036 
 5586500     1657.466   -757.87542    300038.98    15.437451 
 5587000    1470.7222   -755.23637    316318.42    15.237752 
 5587500    1494.3758   -750.57648    321456.74    15.191425 
 5588000    1542.7933   -751.08916    322715.29    14.919659 
 5588500    1598.4637    -763.4742    305502.33    14.997403 
 5589000    1582.8446   -758.27125       302137     15.02324 
 5589500    1617.8922   -765.27085    300718.72     15.18431 
 5590000     1435.343   -753.01158    320304.41    15.033267 
 5590500    1447.0285   -751.47207    321248.88    15.044311 
 5591000    1679.7516   -754.69371    303153.22    15.380636 
 5591500    1624.8989   -764.08972    296377.87    15.294383 
 5592000    1411.2569    -766.5424    277610.68    15.342563 
 5592500    1412.7654   -765.76432    277637.78    15.466078 
 5593000    1503.4867     -766.936    289272.02     15.24794 
 5593500    1576.3167    -756.0849    298577.44    15.342586 
 5594000    1483.7115   -753.00149    317776.97    15.296116 
 5594500    1541.2657   -754.20645    317691.76    15.255133 
 5595000    1509.3847    -752.4933    311944.64    15.249555 
 5595500    1449.3803   -756.76834    306332.35    15.166678 
 5596000    1370.0595   -765.70168    288307.63    15.063744 
 5596500    1451.8225   -771.34676    282027.83    15.104243 
 5597000    1510.2848   -770.11051    287469.59    15.176709 
 5597500    1549.0613   -763.58721    297328.87    14.985181 
 5598000    1625.8698    -756.3896    309611.88    15.235977 
 5598500      1412.71   -757.83696    305659.83    15.120744 
 5599000     1408.802   -759.65471    297672.75    15.133962 
 5599500    1393.1069   -746.72143    310567.15    15.453769 
 5600000    1565.2842   -759.32229    295322.42    14.970403 
 5600500    1603.9347   -765.45631    288749.94    15.307192 
 5601000    1414.2943   -750.52836    291819.25    15.603129 
 5601500    1468.0346   -742.71973    312837.31    15.562641 
 5602000    1569.9392   -744.53483    322349.66    15.493536 
 5602500    1443.8323   -759.19075    303241.09    15.197664 
 5603000     1467.648   -761.49662    289971.19    15.437908 
 5603500    1550.1792   -764.49818     289903.3    15.122239 
 5604000    1505.5371   -756.24686    291781.95    15.410004 
 5604500    1396.7819   -747.45381     308618.7    15.440586 
 5605000    1526.8349   -749.75015    327200.62    15.231337 
 5605500    1590.9357   -758.56203    311137.65    15.236956 
 5606000    1590.5934   -759.72522    304456.16     15.19422 
 5606500    1472.5631   -761.40039    290222.91    15.170774 
 5607000    1546.9858   -762.01846    284440.28    15.329601 
 5607500    1405.5932   -770.83531    281152.11    15.243027 
 5608000    1511.9859   -763.00664    287746.28    15.300164 
 5608500    1566.5372   -759.75649    296511.25    15.265794 
 5609000     1442.975    -756.6698    306956.97    15.324807 
 5609500    1627.7827   -756.99154    314757.08    15.012462 
 5610000    1454.8123   -758.60619       297778    15.358635 
 5610500    1484.0865   -755.26866    290030.39    15.663371 
 5611000    1520.8615    -757.9701     290256.5    15.386794 
 5611500    1491.9686    -756.5892    305417.39    15.201348 
 5612000    1526.6222    -756.6656    305218.38    15.207819 
 5612500    1507.0575   -745.76499    314172.58    15.438334 
 5613000    1511.8362   -748.11664    299068.36    15.670438 
 5613500    1423.1555   -749.62553    283414.68     15.88874 
 5614000    1622.8914   -766.22019    282633.04    15.431348 
 5614500    1597.3567   -757.84739    304488.93    15.253917 
 5615000    1320.5615   -750.17419    316488.15    15.222707 
 5615500    1542.5716   -750.00252    322659.09    15.065376 
 5616000    1351.3924   -755.75833    308135.91    14.948127 
 5616500    1523.9885   -762.36606    296855.24    14.976393 
 5617000    1549.4988   -768.61189    280018.18    15.268593 
 5617500    1378.6491   -769.61899    271647.95    15.311318 
 5618000    1436.9804    -761.3536    287115.56     15.38319 
 5618500    1538.7604   -756.86387    310592.36     15.02439 
[...]
24848000    1334.6285    -769.7076    271853.77    15.291025 
24848500     1518.303   -762.13591    291836.73    15.295197 
24849000    1576.2077   -761.70554    286738.33      15.3174 
24849500    1398.2745   -760.97224    297084.49    15.237757 
24850000    1550.0746   -755.97156    306858.82    15.282617 
24850500    1595.3812   -756.41046    313467.24    15.003033 
24851000    1581.2528   -752.70192    325403.49     15.03287 
24851500    1562.0284   -761.72184    303624.87    15.169913 
24852000    1384.6053   -759.45177    290124.44    15.396027 
24852500    1381.9899   -765.63655    279627.84    15.376687 
24853000    1501.0212   -764.96127     279834.4    15.358963 
24853500    1472.6476   -759.60126     292788.4    15.229941 
24854000    1663.7332   -765.24708    293126.11    15.178251 
24854500    1625.8793   -759.88721    305726.16    15.230145 
24855000    1457.1431   -750.29192    314647.76    15.208631 
24855500     1551.184   -755.42656    314692.31    15.162738 
24856000     1612.563   -755.56422    319537.27    15.059306 
24856500    1516.7305   -756.07974    308081.87    15.125747 
24857000    1492.8987   -763.95276    291891.42    15.216233 
24857500    1470.4223   -763.18234    281167.27    15.323912 
24858000    1431.0286   -769.42825     281937.9    15.139519 
24858500    1606.5987   -762.28552    296362.66    14.929557 
24859000    1455.4854   -760.76328    299797.32    14.994556 
24859500    1576.3359   -757.04766    302959.97    15.249328 
24860000    1540.8674    -761.0812    314379.91    15.185559 
24860500     1563.317   -756.62572     325313.8    14.938932 
24861000    1460.0521   -752.85564    313443.53    15.130785 
24861500    1562.9273   -769.02816     293124.5    15.017263 
24862000    1429.4224   -763.77584    285380.48    15.371123 
24862500    1402.7844   -763.65964    284150.55    15.154943 
24863000    1381.5832   -769.87036    285717.02    15.109496 
24863500    1528.9478   -756.68512     307821.4    15.178611 
24864000    1539.7978   -751.55706    320173.25    15.235608 
24864500    1470.9376   -753.06714    314989.71    15.176314 
24865000    1537.4236   -752.14792    318781.21    15.226389 
24865500    1535.3916   -762.84377    299395.75    15.058333 
24866000    1363.1651   -764.69445    296607.47     15.01552 
24866500    1594.8261   -766.72686    290394.58    15.275909 
24867000    1541.4353   -759.85407    284118.62    15.571504 
24867500    1555.4032   -765.97767    290339.04    15.014593 
24868000    1513.6019   -763.04479    299153.44    15.336856 
24868500    1478.9267   -758.39379    311432.93    15.120984 
24869000    1481.4594   -754.23418    317654.66    15.082058 
24869500    1496.7731   -756.45849    312868.32    15.230856 
24870000    1427.5229   -758.24292    295712.23    15.528471 
24870500    1503.4934   -758.51476    275703.45    15.667122 
24871000    1531.9502   -752.49427    283585.37    15.779038 
24871500    1551.9072   -743.54691    307038.24    15.721915 
24872000    1535.0965   -730.02078    307181.84    16.284183 
24872500    1544.9441   -735.86416    290405.67    16.680447 
24873000    1455.2198   -734.62914    319529.16    16.078555 
24873500    1342.0857   -740.78872    303955.53    16.068496 
24874000    1488.5187   -734.04641    305158.68    16.093355 
24874500    1604.0059    -754.3753    282730.35    15.785726 
24875000     1425.086    -752.3442    288102.16    15.863846 
24875500    1437.1762   -738.14441    303019.65    16.216837 
24876000    1669.5968   -732.44669    313291.51    16.389982 
24876500     1488.577   -737.44635    278649.58    16.912902 
24877000    1489.6971   -727.75956    306187.69    16.823584 
24877500    1476.5837   -733.30748    303881.69    16.707845 
24878000    1415.9908   -729.21671    302600.43    16.763193 
24878500    1648.8821   -732.69132    301389.86    16.760763 
24879000     1458.774   -736.27813    297862.05    16.336316 
24879500    1544.1227   -740.82931    279274.42    16.745817 
24880000    1462.6853    -728.5644    310700.19    16.851994 
24880500    1473.5978   -740.47597    290034.72    16.561436 
24881000    1513.0109   -730.92444    298332.61    16.929634 
24881500    1529.7154   -731.37771     312539.5    16.623256 
24882000    1493.0664   -727.03111    316104.76    16.624957 
24882500    1462.8827   -736.06851    294541.89    16.742239 
24883000     1473.899   -734.94397    304805.61    16.431889 
24883500    1535.3916   -730.42124    313827.43    16.841889 
24884000     1416.283   -736.93443     297330.8    16.713868 
24884500    1566.2912   -737.59327     296100.3    16.550722 
24885000    1426.3539   -727.80407    315705.59     16.64209 
24885500    1688.4398   -737.46763    287897.37    16.828602 
24886000    1521.7286   -738.18517    293901.85    16.493821 
24886500    1398.8967    -732.9822    301244.38    16.931397 
24887000    1503.3112   -733.64204    301161.83    16.624362 
24887500    1436.0231   -743.26757    286524.28    16.583166 
24888000    1514.7248   -732.17696    313744.44    16.437059 
24888500    1477.1532   -730.86763     316973.5    16.303722 
24889000    1472.9942   -735.78497    297009.72    16.674781 
24889500    1366.5879     -736.886    302871.05    16.581898 
24890000    1590.2234   -735.10658    296984.86    16.827443 
24890500    1420.1004   -734.50253    300999.18    16.386609 
24891000    1536.5432   -732.77892    306669.96    16.888591 
24891500    1462.4375   -732.12059    302808.14    16.582048 
24892000    1505.9823   -742.25912    283155.92     16.84528 
24892500    1488.3691   -730.77825    307348.48    16.762688 
24893000     1394.101   -730.21956    307893.76    16.968493 
24893500     1506.493   -740.35785    290075.08     16.45653 
24894000    1406.5245   -738.81549     290402.5    16.613785 
24894500    1535.6764   -731.91788    312878.58    16.185321 
24895000    1477.7876    -735.3966     311799.2    15.987218 
24895500    1578.6158    -739.9023    293199.17    16.492818 
24896000    1677.9044   -737.37298    295795.33    16.410426 
24896500    1428.1845   -726.24887    311183.46    16.979962 
24897000    1461.7624   -735.93098    294937.89    16.465848 
24897500    1610.0826   -732.81147    302671.58    16.647689 
24898000    1460.3249   -738.64796    303435.51    16.176026 
24898500    1451.8284   -734.34596    306727.35    16.093611 
24899000    1514.4016   -736.27068    294768.77    16.787093 
24899500    1550.7753   -730.52879    301870.67    16.780078 
24900000    1562.7846   -727.05565    320331.91    16.521504 
24900500    1531.3692   -736.00237    294370.72    16.593444 
24901000    1499.1194   -739.52585    286783.83    16.539102 
24901500    1571.5696   -728.92709    318676.64    16.516109 
24902000     1503.639   -723.73023    315430.43    16.832847 
24902500    1494.7992   -734.71446    292686.07    17.052028 
24903000    1326.6066   -735.73678     293087.3    16.677111 
24903500    1475.3827   -733.54984    307635.64    16.549077 
24904000    1449.6218    -726.6049    319010.68     16.56854 
24904500    1503.1525   -738.38499    287881.25    17.003713 
24905000    1391.6563    -740.4166    294239.09     16.39306 
24905500     1490.587   -739.44662    300924.66    16.302139 
24906000     1574.699   -727.48591    316624.95    16.406787 
24906500    1392.6272   -738.71161    284713.76    16.533894 
24907000    1484.0108   -734.34335    305161.44    16.200894 
24907500    1521.4055   -734.79851    309721.81    16.043858 
24908000     1412.497   -743.61222    294060.29    16.000911 
24908500    1502.7903   -739.31165    295833.32    16.460358 
24909000    1485.3266    -731.8601    306058.21    16.591748 
24909500     1511.544   -734.36837    298694.36     16.64036 
24910000    1495.9292   -735.68329    290094.66    16.782092 
24910500    1370.4619   -736.87099    296358.38    16.645981 
24911000    1451.9793   -728.34196    309634.06     16.78667 
24911500     1452.587   -739.02989    301470.72    16.313589 
24912000    1530.5613   -736.51484    314868.19    15.927942 
24912500    1680.3749   -735.48352    306086.13    16.186548 
24913000    1459.3741   -736.85226    299494.01    16.228369 
24913500    1630.8269   -736.33399    303960.52    17.028907 
24914000     1479.714   -732.18829    292358.04    17.004129 
24914500    1455.7887   -732.27456     308655.6    16.436316 
24915000    1464.3096    -727.9178    304717.59    16.930205 
24915500    1381.4939   -732.83832    314843.05     16.57866 
24916000    1511.7694   -737.73811    300975.73    16.408133 
24916500    1444.6753   -743.50114    289630.59    16.165946 
24917000    1491.7843   -745.93053     281047.8     16.34201 
24917500    1436.2586   -748.86009    294256.87    15.727275 
24918000    1576.6703   -747.66758    313552.16    15.536255 
24918500    1531.8093   -748.44844     330564.1    15.137175 
24919000    1650.4677   -763.84722    299246.41    15.113738 
24919500    1549.9737   -760.05918     303074.7    14.998942 
24920000    1543.6659   -752.75413    298368.74    15.665725 
24920500    1381.9708   -745.13722    293116.28    15.887484 
24921000    1427.5472   -757.08955    301529.85    15.197333 
24921500    1662.8323   -754.89108    310390.92    15.358921 
24922000     1435.072   -759.37642    303327.32    15.071159 
24922500     1584.213   -757.61635    299566.97    15.319199 
24923000    1465.7027   -761.04201    301599.61    14.980388 
24923500    1339.2663   -764.05666    288083.66    15.287658 
24924000    1487.2127   -768.62911     273027.5    15.351267 
24924500    1403.4409   -762.40717    295871.57    15.232528 
24925000    1436.5893    -763.3851    305616.35    15.000269 
24925500    1408.7995   -753.75884     320643.5    15.106774 
24926000    1457.6198   -747.67654    322577.94    15.073149 
24926500    1410.1909   -756.03035    316587.96    15.177978 
24927000    1507.0638   -759.16252    302639.97    15.225359 
24927500    1405.0293   -761.06825    298028.81    15.256027 
24928000    1578.2436   -767.34664     282586.8    15.052042 
24928500    1494.7845   -761.33665    289052.29    15.317395 
24929000    1549.6896   -767.02069    282629.04    15.256695 
24929500    1567.5829   -759.06848    295433.06    15.400702 
24930000    1544.6794   -758.55263     308884.8    15.263919 
24930500    1458.2907   -749.14812     331202.4     15.12589 
24931000    1499.5785   -753.14416    320162.36    15.086588 
24931500    1410.9962   -753.15795    305506.04    15.355535 
24932000    1393.4706   -764.85976    292169.84    15.181346 
24932500    1458.1702   -764.75611    284432.54    15.349442 
24933000    1580.5221   -763.92128    294992.18    15.074141 
24933500    1428.1469   -758.07893    313354.45    15.141844 
24934000    1433.2327   -751.67959    325826.47    15.180706 
24934500    1539.6285   -747.78136    328971.22    15.227898 
24935000    1565.4199   -756.69821    312956.22    15.149935 
24935500    1478.8574   -763.27758    299543.14    15.124582 
24936000    1473.9677   -759.72001    293523.66    15.348924 
24936500    1586.5483   -766.82275    284328.97    15.158076 
24937000    1557.7396   -766.82867    288668.78    15.203499 
24937500    1485.2573   -762.04873    291286.05    15.340884 
24938000    1436.1063   -768.73951    280791.23    15.141316 
24938500    1595.0294   -767.11601    288848.05    15.202937 
24939000    1507.5054   -764.39104    295421.01     15.20354 
24939500    1612.4281   -747.72329    308696.47     15.54686 
24940000    1620.4183    -742.2586       306225    15.969184 
24940500    1416.1903   -737.61309    299766.84    16.449907 
24941000    1406.0882   -738.15625    287757.65    16.963364 
24941500    1644.9492   -732.64099     300983.1    16.804492 
24942000    1446.7145   -724.68245    312967.95    16.661637 
24942500    1499.3788   -737.35811    297254.69    16.816526 
24943000    1470.9303   -737.69076     288870.3    16.610324 
24943500    1435.7635   -732.95032    312100.71    16.324066 
24944000    1513.8208   -744.86221    293845.52    16.009016 
24944500    1416.6021   -761.53769    296992.49    15.266986 
24945000    1436.5323   -765.33364    297246.03    15.165489 
24945500    1478.4189   -755.83424    290210.53    15.657358 
24946000    1406.5977   -747.77905    304327.72    15.656859 
24946500    1589.3139   -757.47669    309356.05    15.153082 
24947000    1447.7773   -753.68975    311001.07    15.080408 
24947500    1512.4339   -755.56393    309801.37    15.359773 
24948000    1396.6809   -754.09452    305548.07    15.389872 
24948500    1384.5167   -764.75867    292419.84    15.119633 
24949000    1483.5759   -758.58178    292078.98    15.503502 
24949500    1469.5456    -769.4024    294628.98    15.067675 
24950000    1554.1855   -759.12473    294390.37    15.343012 
24950500    1397.9062   -739.35684    300886.91    16.037736 
24951000    1598.2429   -742.19392    302733.02    16.187554 
24951500     1516.277   -740.73172    291657.75    16.055898 
24952000    1452.3772   -758.85847    280169.53    15.596672 
24952500    1429.9505    -744.7496    302540.32    15.889532 
24953000    1576.8658   -733.83953    304048.47    16.402181 
24953500    1404.5744   -731.99952    298997.59    16.963571 
24954000    1631.2781   -726.35122    315661.02    16.837488 
24954500    1626.6957   -729.32899    313330.21    16.926221 
24955000    1368.4188   -735.46149     291785.7    16.609025 
24955500     1503.866   -731.89377    304766.87    16.578462 
24956000    1509.7639   -737.72364    311935.76    15.974318 
24956500    1443.0287   -745.05227     312040.7     15.45503 
24957000    1540.8514   -760.01431    297539.76    15.357467 
24957500    1460.0918   -764.58968    287107.45    15.202943 
24958000    1500.6396   -769.09919    275080.97    15.294358 
24958500     1473.933    -767.2897    287587.23    15.355354 
24959000    1474.6398   -757.51368    308990.97    14.966473 
24959500    1517.5334   -756.71401    311785.28    15.002794 
24960000    1541.0505    -750.1554    317541.66    15.309289 
24960500      1507.64   -753.76146    323672.24    15.002272 
24961000     1531.541   -760.62174    304681.46    15.128506 
24961500    1504.0369   -768.07302       285649    15.159708 
24962000    1500.2848   -762.83614    284200.36    15.439911 
24962500    1627.1637   -764.39889    292791.74    15.265141 
24963000    1535.4538   -767.02644    281753.82    15.400151 
24963500    1373.5024   -759.62859    288915.56    15.407347 
24964000    1551.1346   -754.53069    304587.31    15.372906 
24964500    1498.8951    -743.8872    317031.04    15.496012 
24965000    1474.4158   -742.72184    331257.89    15.424177 
24965500    1467.7518   -750.01478    314591.63    15.215154 
24966000    1589.9821   -761.81308     293089.9    15.287091 
24966500    1624.4998   -767.12714    277898.49     15.34827 
24967000    1469.2186   -768.35341     279115.4    15.272121 
24967500    1580.8253   -768.20658    284116.95    15.376425 
24968000    1518.1747   -761.30506    298338.11    15.228126 
24968500    1387.9501   -751.44935    317757.44    15.178515 
24969000    1461.9375   -754.76861    318079.12    14.909613 
24969500    1623.6475   -757.41941    304029.68    15.310428 
24970000    1545.6907   -763.33998    293687.97    15.345555 
24970500    1584.4283    -766.6013    299903.26    14.966641 
24971000    1423.8629   -760.38906    299346.15    15.210927 
24971500    1619.3676   -760.17388    296544.98    15.213784 
24972000     1513.273   -770.37434    288389.98    15.172202 
24972500    1396.2635   -760.00115    293781.78    15.188887 
24973000    1499.3301   -756.38444    294668.84    15.406731 
24973500    1465.0086   -760.81352    309374.69    14.943985 
24974000     1540.135   -760.62418    303872.81    15.028818 
24974500    1497.6589   -758.22537     301920.1    15.182827 
24975000    1568.6409   -768.01177    287180.38     15.23838 
24975500    1418.9485    -767.3516    287944.58    15.268792 
24976000    1543.4549   -765.19474    291257.41     15.18383 
24976500    1528.5182   -762.70751    297243.41    15.396393 
24977000    1464.0741   -741.62443    303003.47    15.957895 
24977500    1562.1295   -746.87603    276542.11    16.445393 
24978000    1560.1374   -732.85383    293753.19    16.832128 
24978500    1553.6331   -730.52972    315914.27     16.39593 
24979000    1606.1259   -731.25386    309774.27     16.50216 
24979500    1531.5265   -739.18566    294592.81     16.13263 
24980000    1464.1549   -744.00937    297439.95    15.911412 
24980500    1381.0683   -751.60234    276154.64    15.917581 
24981000    1526.4022   -751.27531    297031.96    15.658634 
24981500    1507.9321   -751.14527    302736.06    15.522502 
24982000    1491.6868   -744.08278    313690.19    15.647081 
24982500    1586.2976   -759.97265    311092.38    14.958099 
24983000    1491.8744    -754.1807    308407.51    15.208289 
24983500    1442.9787   -756.75505    306719.53    15.273169 
24984000    1532.5341   -762.82241    298259.34    15.137592 
24984500    1405.8109   -754.18348    282153.83    15.638816 
24985000    1369.2649   -754.90873    289943.57    15.705393 
24985500    1575.6991     -765.069    296997.13    15.113742 
24986000     1522.892   -758.67232    307485.51    15.018883 
24986500    1528.3309   -750.12268    327427.11    15.109128 
24987000    1542.9434   -757.61918     309951.5    15.079817 
24987500    1618.1701   -755.06217    308008.76    15.308257 
24988000    1608.2609    -763.8218    303380.18    14.997758 
24988500    1526.9631   -763.16138    287132.38    15.351539 
24989000    1403.3247   -767.34433    280625.75    15.113153 
24989500    1523.6009   -773.29774    274208.86    15.063822 
24990000    1472.8743   -765.86861    289155.59    15.300696 
24990500    1613.6224   -761.07604    299829.29    15.285951 
24991000    1505.2665   -757.54681    315352.94    15.153723 
24991500     1419.979   -744.78366    331864.55    15.243036 
24992000    1447.3741    -757.0779    308654.55    15.184086 
24992500    1553.3993   -748.67437    294229.01    15.660047 
24993000    1611.2528   -758.32014    277277.34    15.894383 
24993500    1280.1377   -756.97739    280316.91    15.669612 
24994000    1446.9906   -746.94753    296522.19    15.656379 
24994500     1640.015    -735.0857    315810.01    15.946215 
24995000    1505.5777   -732.18686    309123.47    16.569243 
24995500    1405.8765   -738.44698    297015.45    16.472189 
24996000    1497.3731   -729.34208     309270.8    16.943585 
24996500    1389.8751   -739.71208    282575.59    17.069417 
24997000    1504.4803   -730.42571    304084.59    16.527461 
24997500    1576.6822   -728.12185    316522.84    16.537215 
24998000     1507.322   -738.15626     284749.7    17.038887 
24998500    1504.7006   -735.57609    290561.81    16.819484 
24999000    1623.4292   -729.08321     314714.7    16.842747 
24999500    1485.1607   -739.60939    283249.78    16.936661 
25000000    1720.2411   -739.64729    284307.99     16.70498 
Loop time of 6744.09 on 8 procs for 20000500 steps with 256 atoms

Performance: 512.461 ns/day, 0.047 hours/ns, 2965.633 timesteps/s
97.2% CPU use with 8 MPI tasks x no OpenMP threads

MPI task timing breakdown:
Section |  min time  |  avg time  |  max time  |%varavg| %total
---------------------------------------------------------------
Pair    | 3448.4     | 3574.8     | 3714.9     | 148.2 | 53.01
Neigh   | 74.61      | 76.855     | 80.543     |  21.6 |  1.14
Comm    | 876.88     | 1019.7     | 1152.6     | 295.5 | 15.12
Output  | 142.02     | 142.05     | 142.17     |   0.4 |  2.11
Modify  | 1855.6     | 1866.8     | 1876.6     |  14.3 | 27.68
Other   |            | 63.89      |            |       |  0.95

Nlocal:    32 ave 32 max 32 min
Histogram: 8 0 0 0 0 0 0 0 0 0
Nghost:    1049.12 ave 1052 max 1045 min
Histogram: 1 0 0 0 2 1 0 2 1 1
Neighs:    2747.25 ave 2764 max 2733 min
Histogram: 2 0 0 1 1 2 0 0 1 1

Total # of neighbors = 21978
Ave neighs/atom = 85.8516
Neighbor list builds = 703529
Dangerous builds = 0

write_data	data.final
Total wall time: 1:52:24
