LAMMPS (8 Feb 2019)
Processor partition = 0
echo both

include		in.partitions
variable p_id world   0 1 2 3
include		in.temp
variable	temperature equal 1500.0
variable	tempDamp equal 0.1 # approx 0.1 ps
include		in.pressure
variable	pressure equal 300000.
variable	pressureDamp equal 1.0
include 	in.seed
variable	seed world 74581 3459 97394 49764
units		metal
include		in.box
#variable        side equal 4
#lattice         fcc 4.046
#region          box block 0 ${side} 0 ${side} 0 ${side} units lattice
#create_box      1 box
#create_atoms    1 box
#change_box	all triclinic

variable 	mass equal 26.981539
read_data	data.initial
  orthogonal box = (0 0 0) to (15.1524 15.1524 15.1524)
  2 by 2 by 2 MPI processor grid
  reading atoms ...
  256 atoms
  reading velocities ...
  256 velocities
mass            1 ${mass}
mass            1 26.981539
include 	in.setup
variable	out_freq equal 500
variable	out_freq2 equal 500

neigh_modify    delay 10 every 1
include		in.al
### Argon Potential Parameters ###
pair_style 	eam/alloy
pair_coeff 	* * Al99.eam.alloy Al

timestep	0.002 # According to Frenkel and Smit is 0.001

thermo          ${out_freq}
thermo          500
thermo_style 	custom step temp pe press lx


restart 	${out_freq} Restart.lmp.${p_id} Restart2.lmp.${p_id}
restart 	500 Restart.lmp.${p_id} Restart2.lmp.${p_id}
restart 	500 Restart.lmp.0 Restart2.lmp.${p_id}
restart 	500 Restart.lmp.0 Restart2.lmp.0



# NPT

include		in.dump
dump            myDump all atom ${out_freq2} dump.al.${p_id}
dump            myDump all atom 500 dump.al.${p_id}
dump            myDump all atom 500 dump.al.0
dump            myDcdDump all dcd ${out_freq2} out.${p_id}.dcd
dump            myDcdDump all dcd 500 out.${p_id}.dcd
dump            myDcdDump all dcd 500 out.0.dcd
dump_modify	myDump append yes
dump_modify     myDcdDump append yes


timer 		timeout 23:50:00 every 1000
New timer settings: style=normal  mode=nosync  timeout=23:50:00

fix             1 all plumed plumedfile plumed.start.dat outfile plumed.out.${p_id}
fix             1 all plumed plumedfile plumed.start.dat outfile plumed.out.0
fix             2 all nph aniso ${pressure} ${pressure} ${pressureDamp} couple xy
fix             2 all nph aniso 300000 ${pressure} ${pressureDamp} couple xy
fix             2 all nph aniso 300000 300000 ${pressureDamp} couple xy
fix             2 all nph aniso 300000 300000 1 couple xy
fix             3 all temp/csvr ${temperature} ${temperature} ${tempDamp} ${seed}
fix             3 all temp/csvr 1500 ${temperature} ${tempDamp} ${seed}
fix             3 all temp/csvr 1500 1500 ${tempDamp} ${seed}
fix             3 all temp/csvr 1500 1500 0.1 ${seed}
fix             3 all temp/csvr 1500 1500 0.1 74581
fix		4 all momentum 10000 linear 1 1 1 angular

run             5000000 upto # 10 ns
Neighbor list info ...
  update every 1 steps, delay 10 steps, check yes
  max neighbors/atom: 2000, page size: 100000
  master list distance cutoff = 8.28721
  ghost atom cutoff = 8.28721
  binsize = 4.1436, bins = 4 4 4
  1 neighbor lists, perpetual/occasional/extra = 1 0 0
  (1) pair eam/alloy, perpetual
      attributes: half, newton on
      pair build: half/bin/atomonly/newton
      stencil: half/bin/3d/newton
      bin: standard
Per MPI rank memory allocation (min/avg/max) = 4.017 | 4.017 | 4.017 Mbytes
Step Temp PotEng Press Lx 
       0    1414.9716   -816.23515    248923.17    15.152402 
     500    1430.2023   -766.93596    281401.54    15.161033 
    1000    1606.1547   -769.42647    287349.32     15.18326 
    1500    1391.1392   -767.68719    272494.63     15.21428 
    2000    1428.3616   -772.86852    271929.09    15.213851 
    2500    1512.7303   -761.71182       284604    15.266015 
    3000    1485.0461   -767.34656    287701.22    15.263069 
    3500      1408.38    -770.4988    276375.94    15.325409 
    4000    1464.2652   -766.27537     281948.3     15.17042 
    4500    1508.9217   -766.11262     288131.5    15.168562 
    5000    1455.9829   -765.81041    284097.87    15.088098 
    5500    1729.6779   -764.30966    289829.07    15.098119 
    6000    1398.8398   -763.52067    293856.52    15.142887 
    6500    1571.9587   -762.85105    290355.98    15.204712 
    7000    1378.4252   -763.65865    288816.85    15.324567 
    7500    1513.6092   -762.27449    294301.88    15.256485 
    8000    1482.4428    -764.5968    286646.27    15.127892 
    8500    1441.2812   -770.13459    270263.33    15.157536 
    9000    1499.5887   -767.23134    283814.43    15.153339 
    9500     1553.904   -765.94048     294882.4    15.131488 
   10000    1518.7062   -759.57816    302538.19    15.081155 
   10500    1517.1792   -761.97878    305836.02     15.04019 
   11000    1494.8533   -760.44045    300619.47    15.187072 
   11500    1437.4334   -759.90559    302796.56    15.154705 
   12000    1498.0343   -755.40194    312942.92    15.261817 
   12500     1516.894   -749.14306    329707.08    15.224149 
   13000    1610.9725   -755.12953    312936.39    15.164068 
   13500    1645.6182   -758.15861       303648    15.153489 
   14000    1465.5447   -752.51469    310612.14    15.257072 
   14500    1493.3975   -756.41234    302515.61    15.093242 
   15000    1574.1917    -763.4259    295558.29    15.292718 
   15500    1400.1035   -768.09112    279039.66    15.344674 
   16000    1440.1309   -767.42464     280731.2    15.223722 
   16500    1412.1098   -768.99923       285354    15.159015 
   17000    1611.1054   -766.67531     280420.8    15.234916 
   17500    1565.1353   -767.23135     278108.7    15.349783 
   18000    1499.7148   -768.97086    277914.48    15.365356 
   18500    1434.3854   -762.21262    295812.53    15.199757 
   19000    1507.0905   -764.67437    296965.77    15.139683 
   19500    1615.5194   -762.95184    300580.01    15.217037 
   20000    1559.4029   -756.60711    313449.23    15.127127 
   20500    1554.5735   -755.37845    311128.08    15.161792 
   21000     1564.819   -755.80912    305092.14    15.303908 
   21500    1510.8058   -752.24205    304562.47    15.410162 
   22000    1510.5109   -765.62976    282979.32    15.332298 
   22500    1560.8996   -764.29702    280132.32    15.482455 
   23000    1515.7951   -766.24658    281603.63    15.388529 
   23500    1599.9272   -762.44557    290026.61    15.422815 
   24000    1432.3712    -762.9608    294641.49    15.246077 
   24500    1676.7712   -760.56405    294495.23    15.346508 
   25000    1553.6646   -755.75201    302774.71    15.264207 
   25500     1447.264    -745.8856    317452.25    15.258396 
   26000    1409.9069    -754.1129    301034.14    15.379939 
   26500    1386.5293   -754.76813    303871.62    15.374271 
   27000    1398.3961   -756.42895    306678.05    15.188384 
   27500     1469.432   -756.73962    300692.64    15.354763 
   28000    1522.4744   -758.69868    294048.24    15.342747 
   28500    1538.0746   -768.32699    276436.96    15.314285 
   29000    1475.3187   -770.09182    277896.23    15.214555 
   29500    1530.1484   -763.78169    295261.29    15.089708 
   30000    1364.3331   -766.96063    294130.08    15.148967 
   30500    1476.6021   -760.03793    288117.87    15.546084 
   31000    1369.2409   -757.71484    288072.07    15.535376 
   31500    1474.8629   -762.66285    281878.31    15.490701 
   32000    1609.5881    -762.5886    284265.75    15.448756 
   32500    1543.6077   -754.83604    301298.33    15.378152 
   33000    1586.0632   -756.64056    297906.45    15.356058 
   33500    1525.5922   -756.97561    303211.42    15.277066 
   34000    1320.2628   -747.96794    306279.78    15.355533 
   34500    1587.1787   -760.47138    300409.66    15.010856 
   35000    1444.4869   -764.73414    298400.86    15.133817 
   35500    1518.1653    -764.3957    299073.69    15.131917 
   36000     1558.379   -765.67505    296528.25    15.120809 
   36500    1483.2431   -764.07783    295136.75    15.123336 
   37000    1542.4285   -764.56165    294397.26    15.124728 
   37500     1622.999   -763.57995    298332.47    15.112866 
   38000    1515.7656   -760.86113    304447.91    15.126075 
   38500     1484.518   -747.32972    304821.81    15.412488 
   39000    1507.5197   -756.68908    296052.34    15.431675 
   39500    1369.2676   -761.83682       280947    15.146039 
   40000    1544.8877   -757.53499    297458.09    15.448157 
   40500    1458.9012   -753.08512    300062.42    15.376639 
   41000    1476.7076   -757.36774    313573.44    15.133728 
   41500    1413.8772   -758.67027    315428.61    15.021928 
   42000     1457.181   -759.58522     305763.8    15.096882 
   42500    1494.5473   -760.75599    297078.74     15.00459 
   43000    1501.3171   -756.09148    292062.74    15.612882 
   43500    1604.1408   -761.05067    304174.07    15.125891 
   44000    1610.1474   -760.76996    303536.94     15.07933 
   44500    1427.1464   -763.27435    302493.09    15.061314 
   45000    1448.5806   -763.03162    303101.85      15.1524 
   45500    1553.1596   -765.97866    295985.73    15.126456 
   46000    1569.0342   -760.18731    298355.98    15.105622 
   46500    1528.7536   -757.62306    305978.93    15.039462 
   47000    1437.0589   -764.88272    296078.18    15.163882 
   47500    1428.9484   -763.21172    283792.04    15.067108 
   48000    1356.9568   -767.51351    280843.38    15.223551 
   48500    1575.1266   -764.84428    294160.49    15.054868 
   49000    1534.0636   -763.81687    293851.18    15.143066 
   49500    1356.2998   -769.84038    284096.29    15.069554 
   50000    1442.5001   -768.48216    280685.29    15.114441 
   50500    1409.5271   -761.15927    294676.47    15.092429 
   51000    1545.5279   -762.64017    290086.96    15.178596 
   51500    1462.4421   -764.73417    296658.16    15.036648 
   52000    1683.7989    -757.6453    304595.96    15.100663 
   52500    1546.9153   -765.52937    303835.28    15.069285 
   53000    1580.3952   -761.95273    305681.67    15.137532 
   53500    1410.0172   -757.19403    293432.34     15.40801 
   54000     1528.219   -759.48417    294883.18    15.450189 
   54500    1396.5267   -754.33929    287823.53    15.618324 
   55000    1553.4522   -755.80894       297967    15.480861 
   55500    1625.4856   -746.21998    308827.24      15.5586 
   56000    1577.6234   -731.05448    314694.04    16.171266 
   56500    1583.0473   -731.60372    302728.27     16.67841 
   57000    1564.8134   -731.61435    302884.18    16.689394 
   57500    1563.8513   -735.86447    299450.77    16.706359 
   58000    1494.2382   -738.22258    286004.31    16.728867 
   58500    1571.9345   -729.44543    310493.89    16.748141 
   59000    1577.4406   -733.20686     301315.9    16.652206 
   59500    1484.9855   -737.38727    289032.35    16.760838 
   60000    1504.1237   -733.64063     299565.3    16.700123 
   60500    1610.3897   -733.25639    302426.05    16.633317 
   61000    1608.1084   -729.00339    315794.94    16.756699 
   61500    1359.6347   -730.52686    308953.31    16.767085 
   62000    1523.2345   -731.05838    298897.54    16.829757 
   62500      1414.67   -731.35736    306528.62    16.861648 
   63000    1539.1965   -729.05869    315921.89    16.895072 
   63500    1580.8305   -732.71859    306707.84    16.872041 
   64000    1512.2983    -732.5759    309367.23    16.872185 
   64500    1446.6549   -733.10065    299795.13     16.87023 
   65000    1357.5443   -731.19473    301631.32     16.88871 
   65500    1547.0468   -732.10299    302906.04    16.873783 
   66000    1576.3815   -733.15597    301400.47    16.698554 
   66500    1550.0742   -736.45235    301010.93    16.841136 
   67000    1502.6659    -745.1402    270054.84    16.940812 
   67500    1429.7342   -738.39422    283393.76    16.896308 
   68000    1628.2839   -732.68355     306363.3    16.868816 
   68500    1468.3125   -737.83759    286246.43    16.866373 
   69000    1395.3672   -732.77631    293551.56    16.750033 
   69500    1634.5087   -729.10359    313640.25    16.715741 
   70000    1661.3506   -728.64117    310023.76    16.759802 
   70500    1444.9513   -737.12297    288179.82    16.829525 
   71000    1484.7696   -739.26377    287910.74    16.855018 
   71500    1484.5776   -732.98685     301118.1    16.752559 
   72000    1536.3422   -736.83956    293526.71    16.699121 
   72500    1412.0586   -732.61418    300456.52    16.697778 
   73000    1533.6538   -733.52863    296636.06    16.839955 
   73500    1533.4065   -732.46957    296208.21      16.7975 
   74000    1640.8716   -729.80147    308639.27    16.719843 
   74500    1544.5049   -727.45755    314269.96    16.664003 
   75000    1383.2004   -732.21612    295654.48    16.781874 
   75500    1415.5371   -730.17928    315338.12    16.877349 
   76000    1494.3219   -736.33504    296408.06    16.696562 
   76500    1459.7569   -733.86368    295045.54     16.74306 
   77000    1497.5043    -727.7938    317954.62    16.477419 
   77500    1379.2995   -734.33899    303543.62    16.466795 
   78000    1524.0348   -736.06576    281607.67    16.923309 
   78500    1510.4724   -730.76045    307979.65    16.557344 
   79000    1564.0343   -727.47589    322861.77    16.731342 
   79500     1430.435   -739.95076    277815.45    16.714135 
   80000    1539.5354   -730.82814    303697.15     16.72478 
   80500    1480.3471   -731.83199    299269.17    16.670183 
   81000    1446.8468   -738.37436    283120.49    16.869931 
   81500    1462.8573   -733.76168     296274.8    16.656953 
   82000    1443.6756   -729.54789    306312.63    16.668558 
   82500    1479.6176   -731.99824    306109.13      16.6338 
   83000    1514.1916   -738.51111    284539.39      16.5638 
   83500    1486.7915   -736.08052    296854.12    16.861049 
   84000    1478.0321   -743.98836    288530.48     16.61357 
   84500    1387.1908   -726.08442    305679.49     16.72302 
   85000    1388.2255   -726.22528    306089.46    16.650679 
   85500    1689.1954   -732.03217    301294.44    16.711445 
   86000     1374.843   -739.44794    287587.42    16.623683 
   86500    1441.6649   -735.11327    299006.19    16.868349 
   87000    1711.2161   -733.52589    303600.96    16.488925 
   87500    1563.4986   -733.56379    301314.28    16.881485 
   88000    1525.1656   -734.62107    288758.15    16.892448 
   88500    1413.3485   -741.74063     286135.9    16.485364 
   89000     1511.968   -729.80443    312516.02    16.532484 
   89500    1467.7541   -738.18727    294272.93     17.07431 
   90000    1410.3057   -728.19323    306791.16    16.465971 
   90500    1605.6204   -734.14855    296489.34     16.67763 
   91000    1472.3891   -730.47222    313044.06    16.309861 
   91500    1276.6603   -729.51186    313224.81    16.704283 
   92000    1462.5208   -734.73965    297125.68     16.61632 
   92500    1613.9347   -740.31158    290797.52    16.677562 
   93000    1607.7696   -722.84238    331917.45    16.808887 
   93500    1410.1084   -733.60634    296888.13    16.866013 
   94000    1435.3601   -738.03308     292759.3    16.529109 
   94500    1471.3247   -728.51841    314699.88    16.853857 
   95000    1513.7942   -736.20156    297035.12    16.594483 
   95500    1549.6788   -738.69896    288456.67    16.588595 
   96000    1544.6499   -745.51077    266838.78    16.804239 
   96500    1450.6825   -730.58448    309877.19    16.691572 
   97000    1505.1527   -739.61567    287214.13    16.422282 
   97500    1556.8597   -732.96901    302864.78    16.880869 
   98000    1561.4501   -732.68659    307482.86     16.45671 
   98500    1553.3663   -741.74616    286583.36    16.680466 
   99000    1483.7931   -732.76131     308458.5    16.518421 
   99500    1531.4415     -740.956     287633.9    16.453949 
  100000    1558.8273   -743.40585    280650.35    16.375111 
  100500    1434.4551   -735.60678    299276.67    16.591282 
  101000    1389.2786    -739.8392    284613.88    16.611413 
  101500    1657.5345   -738.89214    296346.09    16.490898 
  102000     1422.944   -734.94873    300537.35    16.761003 
  102500    1459.7164   -748.75165    262796.35    16.822213 
  103000    1508.6735   -740.28832    287587.64    16.550465 
  103500    1449.0074   -731.93351    309858.34    16.477536 
  104000    1519.3511   -741.07004    289298.95    16.623536 
  104500    1337.9206   -731.18896    301138.92    16.344694 
  105000    1480.4845   -734.51153    308834.01     16.31017 
  105500    1457.6992    -738.4911    288735.62    16.366285 
  106000    1491.7505   -735.86966    294134.42     16.85893 
  106500     1509.938   -731.20797    305959.38    16.909436 
  107000    1473.7263   -737.59543    291426.82    16.722969 
  107500     1465.688   -744.24734    281323.65    16.482697 
  108000    1608.5707   -733.38252    300437.24    16.495764 
  108500    1566.0957   -737.94203    299746.42    16.536312 
  109000    1500.1437   -730.66527    310688.38    16.372491 
  109500    1587.4942   -743.75465    284659.68     16.42032 
  110000    1511.5067   -738.69386     298333.7    16.396598 
  110500    1507.6942   -729.19394    311865.52     16.38619 
  111000    1504.1806   -733.32244    312700.62     16.39496 
  111500    1530.1073   -739.22132    286625.64    16.859011 
  112000    1522.7609   -734.69651    296327.95     16.77781 
  112500    1531.7747   -736.77705    304235.75    16.372246 
  113000    1455.7444   -737.26642    297042.71    16.528455 
  113500    1552.0478   -734.48534    306414.68    16.415159 
  114000    1501.4708     -734.246    312946.89    16.332911 
  114500    1427.9466   -739.48458    286836.55    16.415201 
  115000    1576.1975   -733.78584    307093.99    16.329178 
  115500    1554.8566   -732.15579    310633.02    16.341015 
  116000    1573.5859   -740.25454    283830.31    16.835056 
  116500    1538.6051   -738.84648    290560.16    16.714064 
  117000    1473.9487   -738.13035    290969.97    16.533439 
  117500    1504.0054    -740.7066    295709.95    16.374773 
  118000    1585.7387   -743.57661    287782.77    16.318447 
  118500    1493.3993   -731.99251    308425.98    16.259113 
  119000    1536.5067    -739.5882     299093.3    16.611431 
  119500    1752.5325   -732.46565    309982.08    16.582011 
  120000    1412.7114   -735.34212    299136.43    16.320733 
  120500    1417.1228   -738.49321    290588.72    16.466904 
  121000    1456.1956   -737.53003    294685.88    16.477685 
  121500    1521.6952   -740.48646    291501.66    16.443641 
  122000    1645.9954   -727.29383    314785.35    16.464387 
  122500    1654.1791   -734.90924    308384.45    16.243607 
  123000     1395.283   -741.86392     286221.7    16.375803 
  123500    1583.1439   -734.16583    303544.47    16.385802 
  124000    1636.0317   -730.78424     313492.7    16.417528 
  124500    1499.6644   -742.52057     289350.9    16.628668 
  125000    1487.8565   -743.78646    288395.87    16.436582 
  125500    1610.0434   -734.85597    295411.41    16.389835 
  126000    1536.5025    -736.0982    303041.97    16.255373 
  126500    1393.1564   -731.62259    308420.43    16.573164 
  127000    1475.3294   -741.73327    294818.58    16.363148 
  127500    1532.4431   -736.31978     304975.6    16.235798 
  128000    1495.1451   -738.45374    298293.57    16.333697 
  128500    1492.5328   -734.53937    295921.16    16.520151 
  129000    1503.7336   -736.67781    301081.65    16.289353 
  129500    1524.6203   -733.26782    310942.48    16.198396 
  130000    1394.4707   -738.72348    290725.79    16.562415 
  130500     1563.707   -734.90075     300087.4    16.352499 
  131000    1475.7031   -736.24762    305008.78    16.165219 
  131500    1468.0232   -739.63296    292187.67    16.688778 
  132000    1394.5291   -737.87269    289474.88    16.800135 
  132500    1664.4236   -724.79524    308429.94    16.806008 
  133000    1586.5539   -721.23741    326302.99    16.751271 
  133500    1564.9924   -728.67928    308878.89    16.852944 
  134000    1400.9555   -734.89245     295325.1    16.919606 
  134500     1458.541   -738.92919    281962.32    16.905319 
  135000    1318.2904   -737.07402     281381.5    16.941593 
  135500    1488.4312   -734.70753    295303.83    16.937107 
  136000    1567.2928   -736.63174    287419.94    17.040997 
  136500    1500.1208   -734.82098     301252.3    17.002258 
  137000    1437.4147    -723.9113    319064.97    16.951314 
  137500    1569.4105    -725.7268    317443.67    16.921526 
  138000    1525.3023   -729.94218    303009.34    16.792896 
  138500     1407.892   -731.04579    298922.91    16.850897 
  139000    1462.7452    -731.1374    296688.12    16.797718 
  139500    1404.8149    -729.3119    311239.79    16.775061 
  140000    1587.1828   -728.62189    307780.91    16.805033 
  140500     1529.334   -731.30235    301208.59    16.884465 
  141000     1472.662   -735.20169    293721.75    16.906526 
  141500    1602.2208   -736.85161     306396.2    16.163387 
  142000     1570.452   -742.41049    285642.05    16.512407 
  142500    1541.1002   -745.44639       291359    16.056942 
  143000     1616.413   -742.17294    310074.53    15.804225 
  143500    1405.9322   -739.81276    308457.13    15.851276 
  144000     1495.833   -756.18522     272665.3      15.9014 
  144500    1475.6692   -742.85889     294899.7    16.071501 
  145000    1519.7032   -741.56371    310185.75    15.714927 
  145500    1617.9826    -748.9767    320012.99    15.345206 
  146000      1525.52   -751.76367     319026.7    15.282855 
  146500    1522.1292   -752.85101    301605.98    15.494929 
  147000    1438.4394   -762.34192    299266.03    15.000744 
  147500    1476.4343   -758.60799    303704.49    15.067612 
  148000    1528.7604   -763.20311    304834.43    15.043665 
  148500     1448.088   -752.49544    315350.83    15.033262 
  149000    1338.0964   -760.61904    308249.35    15.048817 
  149500    1462.2057    -759.9635    306751.51    15.077042 
  150000    1511.4394   -759.51163    314741.54    14.957831 
  150500    1506.5341   -764.12818    304513.73    15.152229 
  151000    1489.3259   -757.82647    297605.96    15.367917 
  151500    1514.0659   -744.68533    306289.87    15.655348 
  152000    1553.9862   -736.08946    303162.77    16.115058 
  152500    1471.3845   -736.61451    291177.61    16.807099 
  153000    1507.5886   -727.96903    312940.84    16.819036 
  153500    1462.6953   -733.53527    296070.28    16.940123 
  154000    1496.2923   -743.08838     276196.7    17.033647 
  154500    1417.0605   -735.85286    295959.14    16.918357 
  155000    1514.9936   -725.72827    314374.64     16.86548 
  155500    1534.8743   -726.63451    311551.42    16.878607 
  156000     1332.759   -733.24199    301351.37    17.010949 
  156500    1533.7233     -737.292    285532.38    16.889821 
  157000    1492.0148   -735.79483    290212.98    16.831863 
  157500    1658.9777   -726.96934    318528.87    16.671152 
  158000    1520.3975   -727.30627    317469.28    16.730059 
  158500    1498.7882    -736.1284    295702.98    16.903593 
  159000    1590.4813   -728.59115    300379.79    17.024128 
  159500    1435.9208   -735.71105    293621.97    17.047348 
  160000    1407.3234   -735.75955    291843.95    16.918846 
  160500    1453.8533   -730.26907    306227.63    16.778646 
  161000    1502.0796   -727.35581    308352.18    16.732548 
  161500    1724.1835   -734.04455       297088    16.619729 
  162000     1472.705   -740.64743    286496.49    16.457943 
  162500    1529.0868   -743.79871    287378.62    16.287578 
  163000    1608.2309   -733.19398    326733.18    16.002806 
  163500    1393.4446   -732.64014    310494.45    16.097152 
  164000    1396.2816     -744.849    287375.17    16.076801 
  164500    1494.4324   -744.13092    304194.27    15.884596 
  165000     1461.391   -749.19348     313923.3    15.442103 
  165500    1421.8743    -759.5444    309427.06    15.152137 
  166000    1518.0553   -748.89409    319051.05    15.004829 
  166500    1373.6253    -758.1236    314120.67    15.040174 
  167000    1444.5786   -756.94308     316197.1    15.018116 
  167500    1483.8694     -749.795    325866.62    15.004606 
  168000    1484.2883   -755.83316    314017.97    15.089966 
  168500    1573.8747   -763.25269    300307.35    15.034969 
  169000    1472.3628   -763.64038    301658.24    15.122693 
  169500    1569.2053   -759.33253    307120.63    14.979208 
  170000    1548.2783   -763.93199    297378.67    15.191255 
  170500    1542.0045    -767.4346    296725.14    15.123332 
  171000    1539.7628   -759.01328    295311.58    14.999669 
  171500    1489.4026   -757.50492    304199.03    15.186301 
  172000    1520.2953    -765.9607     285500.5    15.007302 
  172500    1487.3501   -766.57756    294929.97    15.137258 
  173000    1496.0236     -764.185    293007.31    15.090273 
  173500    1625.6048   -764.93183    293824.43    15.104476 
  174000    1435.1138    -758.2593    301452.98    15.038258 
  174500    1496.1791   -761.52048    300573.72    15.072622 
  175000    1500.3885   -756.54603    313300.72     15.04474 
  175500     1487.045   -762.52905    307669.29    15.037819 
  176000    1492.6128   -761.49676     304483.3    15.013734 
  176500    1590.0939   -765.00093    301228.33    15.147578 
  177000    1385.3194   -761.91082    293868.03    15.020325 
  177500    1312.1893   -767.69486    280297.25    15.120131 
  178000    1452.8852   -772.71124    269054.54    15.197498 
  178500    1641.8392   -766.73973    285860.47    15.044464 
  179000    1528.8855   -760.89481    299401.48    15.104232 
  179500    1595.0013   -762.39449    295962.28     15.04628 
  180000       1611.9   -761.13437    303117.61    15.067385 
  180500    1521.4313   -765.28685    300307.78      15.0515 
  181000    1659.3871   -765.20664    297310.05    15.091417 
  181500    1571.2144   -765.75213    285728.55    15.095133 
  182000    1348.8634    -765.2522    284397.24    15.208391 
  182500     1465.728   -766.66885    288397.66    15.028939 
  183000    1403.9857   -765.30101    289933.42    15.138752 
  183500    1529.2648   -765.00682    296170.59    15.011175 
  184000    1454.8763   -762.22308    304947.53    15.094235 
  184500    1592.7847   -759.18425    314545.75    15.028615 
  185000    1608.2739   -754.33969    321265.77    15.019095 
  185500    1486.0471   -756.60221    306786.23    15.051417 
  186000    1392.8928   -757.82013    318154.32    15.003512 
  186500    1497.5076   -760.01724    314710.59    15.012219 
  187000     1464.011   -759.48867    315825.12    15.071675 
  187500    1549.4871   -757.41646    305248.12    15.013031 
  188000    1506.0783   -767.24193    296655.38    15.079551 
  188500    1498.1128   -756.07783    297452.68    14.970267 
  189000    1509.2956   -764.78527    297741.51    15.156111 
  189500    1564.9431   -766.66475    288287.49    15.088481 
  190000    1573.5705    -756.5822    295801.21    15.032915 
  190500    1393.6587   -761.63823    304331.99    15.131548 
  191000    1440.6577   -763.29861    293944.73    15.027584 
  191500    1481.1871   -764.40549    287748.34    15.066429 
  192000    1419.6036   -759.69651    305317.12    15.161754 
  192500    1612.2168   -762.66029    301138.35    15.003279 
  193000    1379.6922   -768.09661    279891.39    15.179609 
  193500    1407.6872   -772.34774    283090.61    15.166475 
  194000    1453.5986   -763.93976    291218.16    14.985176 
  194500    1558.4368    -766.3953    296445.69       15.197 
  195000     1505.096   -763.14142    292671.54    15.091639 
  195500    1420.1699   -765.51491    288316.02    15.293655 
  196000    1484.7649   -756.81338     294438.9    15.377911 
  196500    1381.0469   -745.95335    306772.15    15.624613 
  197000    1535.7109   -748.41759     301290.1    15.644891 
  197500    1449.8451   -736.75009    307029.16     16.01455 
  198000    1363.8789   -739.62488    294686.86    16.433224 
  198500    1492.8426   -740.21809    307078.87     16.14226 
  199000    1476.6342   -745.75363     303268.5    15.716095 
  199500    1644.0524   -751.47662    311523.22    15.349538 
  200000    1542.4604   -746.46108    320233.68    15.401477 
  200500    1613.7815   -763.34387    292783.17    15.364868 
  201000    1487.1821   -761.57174    283186.18    15.398239 
  201500    1607.1253   -760.46653    275395.65    15.673797 
  202000    1569.8006   -758.01009    287905.38    15.476171 
  202500    1567.9281   -749.82231    306415.42    15.492271 
  203000    1542.7574   -748.95145    321772.84    15.157398 
  203500     1532.389   -744.04428    327013.62    15.278539 
  204000    1609.5243   -745.40391    301602.39    15.820121 
  204500    1508.1406   -739.33536    296785.81    16.222688 
  205000    1523.3705    -733.5434    308707.57    16.315447 
  205500    1529.3381   -746.03284    294035.89    15.825933 
  206000    1428.6168   -742.09063    302520.78    16.113867 
  206500    1435.7979   -734.27089    303189.66    16.490581 
  207000    1587.9326   -737.51322    303077.86    16.272319 
  207500     1399.934   -742.58981    287089.29    16.516434 
  208000    1367.1942   -745.08673    301071.62    15.872205 
  208500    1421.4547   -756.48212    296552.09     15.36756 
  209000    1571.2177   -760.03148    304762.61     15.19012 
  209500    1645.5945   -768.07782    294477.48    15.179418 
  210000    1529.5441   -759.40512       302722    14.943035 
  210500    1585.0537   -766.51389    290046.38    15.117328 
  211000    1404.6918   -765.95906    295645.57    15.163071 
  211500    1457.3837   -760.14671    306286.65    14.967554 
  212000    1370.6415   -765.02596    300507.55    15.050651 
  212500    1399.7207    -758.6535    303568.47    15.089881 
  213000    1507.2223   -760.96405    303937.72    15.025581 
  213500    1508.7809   -760.96682    302714.66    15.076006 
  214000    1502.9788   -759.07853    302763.95    14.992725 
  214500    1496.2919   -766.39508    290009.52    15.136179 
  215000    1422.7749   -743.66068    301696.34    15.749998 
  215500    1390.8857   -748.57825    307732.67    15.540262 
  216000    1443.1638   -760.87889     301545.9    15.031855 
  216500    1474.1919   -763.26349    307787.67    15.108332 
  217000    1465.7459   -761.10299    306603.77    15.082766 
  217500    1529.1931   -763.98448    303216.08     14.96707 
  218000    1431.0583   -765.88633     294231.9    15.101966 
  218500    1463.5179   -768.54058    290919.06    15.152388 
  219000    1611.4855   -766.75655     290291.9    15.147269 
  219500    1388.6184   -752.41357    293491.37    15.626918 
  220000    1670.5251   -751.74825    297332.71    15.623855 
  220500    1557.6092   -747.73107    295969.29    15.718911 
  221000    1540.9318   -736.36102    307105.35    15.993367 
  221500     1431.501   -739.20903    294355.12    16.429887 
  222000    1430.2559   -749.83438    276058.84    16.171499 
  222500    1599.9168   -741.55035    293312.28    16.085133 
  223000    1533.6481   -746.74673    311526.14    15.575672 
  223500    1336.5308   -748.68266    299751.69    15.588765 
  224000     1466.982   -746.63473    288490.38     16.13502 
  224500    1623.6476    -734.8516    317747.33    16.048629 
  225000    1380.2249   -742.02918    292223.53    16.214094 
  225500    1481.8943   -741.54179    292780.69    16.163182 
  226000    1545.3412   -734.56056    298295.37    16.466534 
  226500    1439.5411   -743.00392    284865.39    16.709005 
  227000    1473.1776   -731.40541     318307.7    16.248224 
  227500    1503.8933   -741.76918    288920.34    16.251031 
  228000    1445.1526   -742.60807    281265.36    16.500879 
  228500    1421.4771   -746.93622    302675.97    15.829017 
  229000    1578.6891   -746.72028    315935.02    15.525735 
  229500    1474.7098   -752.21873    311392.25    15.364233 
  230000     1531.705   -751.39644       307950    15.441066 
  230500    1387.7554   -753.60585    287968.29    15.711832 
  231000    1556.6007   -760.83015    286564.99    15.509833 
  231500    1298.7243   -758.42756    277911.31    15.697834 
  232000    1655.5329   -741.79262    303973.32    15.886887 
  232500    1601.5648   -746.04536    305593.33    15.783185 
  233000    1533.3305   -733.11923    321875.97    16.014918 
  233500    1497.8337    -742.9658    296506.94    16.024423 
  234000    1448.4738   -755.06387    294994.64    15.578973 
  234500    1645.0193   -755.37364    299839.01     15.30843 
  235000    1558.4636   -756.24077    299012.45    15.414657 
  235500    1584.3288    -766.9765    300750.17     15.18507 
  236000    1622.0363   -760.93687    305283.76    15.215197 
  236500    1479.6123   -750.93867    294616.76    15.685841 
  237000     1449.235   -755.05777    274693.71    15.942326 
  237500    1427.0624   -755.11676    284045.28    15.692391 
  238000    1416.3509   -741.09914    309246.81    15.830633 
  238500    1440.2512   -735.46047    316077.05     15.89546 
  239000    1439.0517   -727.30575    318288.91    16.200576 
  239500    1368.3344   -742.29917    290913.08    16.264902 
  240000    1426.6198   -752.99963    278206.29    15.892255 
  240500    1442.7964    -747.8878    297242.73    15.650767 
  241000    1491.0182   -747.29501    304459.24    15.495819 
  241500    1499.4584   -766.12149    298860.02    15.022334 
  242000    1485.3946   -749.57783    306040.56    15.502201 
  242500    1521.5951   -749.42663    313634.27     15.51673 
  243000    1552.0241   -748.29984    298669.76    15.753259 
  243500    1525.6363   -742.03658    293278.17    16.272563 
  244000    1491.0397   -742.42586     292071.8    16.425052 
  244500    1545.9876   -724.10693    331675.18    16.456063 
  245000     1476.209   -737.92414    295467.91    16.414809 
  245500    1470.2267   -740.30755    292581.35     16.53099 
  246000    1672.1345   -739.71518    292555.29    17.140812 
  246500    1363.8322   -732.36231    306698.57    16.972729 
  247000    1387.9875   -736.48702    294346.15    17.010985 
  247500    1404.5944   -733.94937    295999.11    16.965153 
  248000    1466.6161   -734.76231    303037.14    16.401556 
  248500    1541.8641   -745.89341    295116.84    15.880515 
  249000    1528.2269   -752.63626    297938.02    15.673007 
  249500    1447.4561   -731.53239    315775.83    16.093015 
  250000    1490.1666   -740.27378    293383.83    16.449579 
  250500    1427.3813   -741.20969    284762.58    16.316084 
  251000    1478.4716   -732.96814    320173.08    16.228768 
  251500    1615.4582   -730.61341    329771.95    16.010205 
  252000    1494.6267   -734.53318    304544.37    16.410043 
  252500    1504.2626   -741.41746    284005.44    16.519452 
  253000    1608.2971   -736.03983    304150.15    16.310748 
  253500    1508.4725   -740.80563    296530.72    16.174294 
  254000    1579.4868   -740.81893    299384.11    16.391982 
  254500    1431.9115   -737.53531    295231.06    16.477829 
  255000    1345.8151   -743.84636    296527.02    16.036789 
  255500    1513.7556   -759.59846    297864.79    15.323522 
  256000    1666.8223   -763.75107    293338.97    15.333252 
  256500    1566.3683   -757.12444    286646.36    15.632424 
  257000    1448.8854   -740.83143    312617.84    15.776339 
  257500    1430.2858   -738.33198     321984.2    15.713325 
  258000    1597.9861   -736.82615    319509.19    15.761329 
  258500    1414.4672   -748.31603     298773.1    15.646549 
  259000    1632.2693   -741.53912    290997.13    16.194132 
  259500    1497.7404   -727.49595    318048.18    16.355999 
  260000     1416.076   -748.46015    298523.69    15.877366 
  260500    1478.2904   -749.43656    294956.22    15.613592 
  261000    1538.4222   -760.37853    284327.54    15.375215 
  261500    1463.6435   -742.66241     301829.2    16.020413 
  262000    1573.2296   -740.13641    296615.63    16.428035 
  262500    1498.1658   -748.78918    297700.46    15.703142 
  263000    1470.3031   -737.89754    309616.52    15.964484 
  263500    1448.2938   -731.67218     307319.4    16.302559 
  264000    1600.9638   -738.85095    297243.69    16.395653 
  264500    1521.9245   -737.92438    294559.98    16.327775 
  265000    1564.2827   -737.47125    307645.02    16.333654 
  265500    1488.6586    -740.9764    296052.99    16.218453 
  266000     1573.879   -737.17885    310218.14    16.266232 
  266500    1534.7101   -742.67895    284213.63    16.379931 
  267000    1489.3228   -748.55908    301019.61    15.696757 
  267500    1459.2913    -741.0965    320483.34    15.498746 
  268000    1457.5709   -752.06118    312120.66     15.31384 
  268500    1603.0702   -758.47366    290189.52    15.446777 
  269000    1441.6409   -761.28165    284353.41    15.410376 
  269500    1454.6422   -762.22361    289152.12    15.428099 
  270000    1434.7362   -758.56135     290366.4    15.522006 
  270500    1451.8903   -764.25653    292592.41    14.975108 
  271000    1489.5541   -770.27091    273965.95     15.14066 
  271500    1496.0158   -757.79891    289833.71    15.434463 
  272000    1610.4863   -761.83249    294193.44    15.390043 
  272500    1534.8245   -764.87623    301197.02    15.086326 
  273000    1510.7039   -757.45611    305067.47     15.05558 
  273500    1647.9638   -759.15971     313526.8     15.05413 
  274000    1512.7241   -754.65957    324422.66     15.03954 
  274500    1615.1031   -751.85592    324539.34    14.937094 
  275000    1577.7836   -756.53894    317055.35    14.982677 
  275500    1514.1995   -754.54039    313718.52    15.074162 
  276000    1484.8654   -758.71431    303856.02    15.097366 
  276500    1480.5837   -767.74602    294834.49    15.111912 
  277000    1436.0415   -763.53065    292697.15    15.098866 
  277500    1466.9121   -763.58626    285410.09     15.44995 
  278000     1497.838   -764.61778    283118.08    15.351015 
  278500    1494.6721   -758.72769    291784.74    15.470786 
  279000    1507.9769   -758.61079    279715.58    15.746307 
  279500    1546.9811   -743.40566    308441.98    15.753646 
  280000    1492.3014   -743.76508    312869.61    15.590346 
  280500    1563.0538   -734.08221    318392.58    16.055718 
  281000    1555.3325   -742.23127    296130.99    16.110189 
  281500    1411.1238   -748.28003     294405.8    15.788834 
  282000    1548.6648    -740.2908    299083.38    15.976459 
  282500    1581.9678   -731.57983    305751.23    16.354952 
  283000    1479.4167   -743.37882    298464.29    15.958087 
  283500    1615.2354   -766.78847    285244.72    15.301103 
  284000    1443.3718   -763.39546    301077.41    15.137891 
  284500    1545.5979    -768.1458    291977.63    15.072882 
  285000    1495.4725   -756.04359    301109.16    15.457666 
  285500    1488.0804   -754.60957    306318.61     15.28353 
  286000    1553.8039   -747.37409    322220.19    15.288754 
  286500    1644.4716   -755.71624    315328.06    15.098162 
  287000    1450.8203   -742.85507    305358.02    15.695843 
  287500    1424.6465   -738.71797     304332.5    15.950132 
  288000    1481.5677   -747.15767    305131.59    15.617934 
  288500    1441.8317   -759.00548     294138.1    15.349929 
  289000    1383.8508   -761.87128    286305.35    15.398918 
  289500    1574.3289   -763.72828    279051.08    15.504518 
  290000    1522.5654   -760.61211    291044.52    15.385353 
  290500    1542.5633   -761.23796    297780.43    15.286842 
  291000    1450.0539   -751.68406    311541.03    15.297111 
  291500    1417.7127   -754.29594    313015.73    15.177169 
  292000    1452.5649   -752.55594    314928.13    15.290406 
  292500    1589.9047   -756.53504    316952.92    15.106244 
  293000    1414.2356   -752.15551    317461.17    14.970469 
  293500    1613.1418   -757.01428    308537.79    15.021555 
  294000    1421.5131   -758.01636     308637.2    14.994358 
  294500     1458.329   -760.27389       302394    15.081393 
  295000     1470.012   -761.76426    298638.02     15.06039 
  295500     1412.755   -763.99907    296164.23    15.084583 
  296000    1458.5251   -763.83255    285160.94    15.096849 
  296500    1538.3614   -767.61631    290737.87    14.986315 
  297000    1529.3819   -760.82011    295992.95    15.365452 
  297500    1439.0045   -761.27165    298594.77    15.338097 
  298000    1573.8584   -755.67228    312984.43    15.203318 
  298500    1481.2378   -749.94734     316129.8    15.279927 
  299000    1556.3002   -746.58959    316458.78    15.474009 
  299500    1528.8758   -740.40509    300142.69    16.076738 
  300000    1456.0329   -736.91441    300227.49    16.379947 
  300500    1433.6058   -740.92778    294875.76    16.106542 
  301000    1562.3608   -748.00243    297252.33    15.882049 
  301500    1648.2375   -736.36258    296849.94    16.325672 
  302000    1560.6159   -736.00244    299227.73    16.618802 
  302500    1610.6123   -733.71239     305791.1    16.285562 
  303000    1377.9641   -738.43635    300921.97    16.161323 
  303500    1401.0999   -731.60216     292818.3    16.720855 
  304000    1714.6678   -727.96605    322559.97    16.502264 
  304500    1444.4957   -728.63404    316932.02    16.356738 
  305000    1331.7961   -733.74279     304860.6    16.401833 
  305500    1364.0543   -743.69581    281217.93     16.41837 
  306000    1541.8561   -732.91979    307180.17    16.448171 
  306500    1526.7294   -737.28657    300025.48    16.384891 
  307000    1515.2688   -743.26548    285990.25    16.307816 
  307500     1574.151   -737.02832    292837.68    16.508468 
  308000    1464.8439   -726.16551    317204.36    16.501472 
  308500     1540.219   -733.33548    306013.76    16.419621 
  309000    1458.1081   -736.80225    298527.91    16.915915 
  309500    1520.0623   -726.23525    322475.38    16.525614 
  310000    1484.9625   -738.17566    303875.73    16.185607 
  310500    1579.3029   -756.15525    278313.68    15.804271 
  311000    1500.6467   -764.09522    292988.17    15.142509 
  311500    1584.5711   -759.32364    299685.42    15.197749 
  312000     1579.395   -757.13358    299651.91    15.375948 
  312500    1402.3386   -756.02807    310720.63    15.274134 
  313000    1405.9168   -757.07077    311283.88    15.166072 
  313500    1457.5447    -755.8047    307976.59    15.166262 
  314000    1410.7441    -761.4197    305117.96    15.136003 
  314500    1654.8571   -762.83487    303189.91    15.180323 
  315000    1578.5061   -770.35709    283084.68    15.175664 
  315500    1436.8791    -761.3963    285570.58    15.399349 
  316000    1609.9523   -757.15754    283557.92    15.632512 
  316500    1326.3401   -740.78162    301284.87    15.809658 
  317000     1635.229   -745.01335    319195.04    15.572061 
  317500    1477.8478   -737.39815    312931.99    16.047233 
  318000    1475.3596    -739.2611    292107.46    16.333555 
  318500    1515.4398    -739.0214    295812.62    16.556255 
  319000    1582.4949    -732.7893     307113.7    16.350358 
  319500    1476.8409     -749.888    267641.09    16.528209 
  320000    1498.4465   -740.28684    291930.73    16.324229 
  320500    1609.2539   -729.07812     312587.7     16.37334 
  321000    1578.0759   -729.64932    311684.09    16.446192 
  321500    1519.3596   -734.02433    291685.56     16.90309 
  322000    1515.3559   -740.63252    303915.83    16.160305 
  322500    1566.1277   -742.54728     301497.1    15.765695 
  323000    1362.7645   -758.52741    296151.84    15.332472 
  323500     1559.524   -759.54003    303192.81    15.172093 
  324000    1565.2015   -748.23324    317404.03    15.149382 
  324500    1616.7304   -747.56597    325064.22    15.309295 
  325000    1492.1863   -751.08846    314302.16    15.258854 
  325500    1499.6406   -756.72231    294985.44    15.492391 
  326000    1541.9321    -763.0079    284281.71    15.360457 
  326500    1480.9288    -758.4542    295853.41    15.392915 
  327000    1681.7431    -755.2004    313958.16    15.342257 
  327500    1451.6285   -736.70977    324012.54    15.698423 
  328000    1543.6517   -740.01459    296456.41    16.144716 
  328500    1511.2572   -742.70467    295640.69    16.187354 
  329000    1573.9505   -732.91319    310655.75    16.172036 
  329500    1521.9361   -742.91994    283040.76     16.68463 
  330000    1488.4347   -739.28467    284546.54    17.068549 
  330500    1467.4863   -722.78443    314193.72    16.884688 
  331000    1458.9557   -740.18118    276841.16    16.944326 
  331500    1504.1765   -736.19106    279810.21    16.926947 
  332000    1490.9013   -735.35424    298018.99    16.951836 
  332500    1467.4355   -734.19839    301943.05     17.03809 
  333000    1544.7476   -744.48766    283740.16    16.525516 
  333500     1549.788   -734.69462    309759.41    16.244453 
  334000    1558.9634   -732.31755    305864.37    16.879471 
  334500    1484.5877   -733.81516    297581.85    16.930862 
  335000    1523.7464    -733.7339    298342.22    17.111678 
  335500    1605.7306    -740.9287    287856.66    16.882988 
  336000    1351.0323   -734.17821    301379.75    16.819964 
  336500    1424.0222   -732.04225    303768.34    16.727946 
  337000    1526.1465   -721.87489    321810.86    16.588219 
  337500    1461.2261   -738.00843    294940.33    16.428801 
  338000    1553.3452    -744.8975    277300.42    16.480119 
  338500    1561.7967   -754.43124    297957.21    15.710854 
  339000    1471.4594   -737.55716    308705.69    15.885534 
  339500    1511.5584   -739.89638    293793.38    16.201902 
  340000    1480.7926   -744.71675    292555.63    15.863082 
  340500    1610.7782    -758.0091    299555.17    15.436888 
  341000    1398.8511   -754.57134    320321.27    15.269313 
  341500    1311.2575   -762.40712    309511.49    15.052447 
  342000    1527.3708   -764.84977    302139.52    15.080901 
  342500    1348.3079   -758.19924    305207.56    15.056204 
  343000    1485.8449   -758.03808    304553.66    15.085953 
  343500    1554.6041   -763.91478    299655.84    15.177704 
  344000    1472.4251   -761.57177    301432.54    15.210276 
  344500     1485.927   -743.62379    294261.84    15.976403 
  345000    1404.2468   -735.06673    299056.68    16.471753 
  345500    1426.5819   -735.26809    303541.48    16.236375 
  346000    1523.1537   -756.55924    277855.92    15.768125 
  346500    1550.5387   -761.31352     287767.9    15.408116 
  347000    1610.2828   -759.54442    300136.38     15.27945 
  347500    1468.3441   -748.84016    317448.42    15.389386 
  348000     1591.044   -746.31976    319636.31    15.384592 
  348500    1702.0107   -742.57031    302463.56    15.839434 
  349000    1581.6247   -740.69635    295353.43    16.430939 
  349500    1480.8281   -731.22884     306675.3    16.357337 
  350000    1475.3077   -738.70818    312863.51    15.749578 
  350500    1493.7365   -750.73096    303836.43    15.572898 
  351000    1532.2994   -749.29876    293552.57    15.892666 
  351500    1541.9497    -764.3195    291012.13    15.293271 
  352000    1632.0121   -762.67547    299803.77    15.172679 
  352500    1530.4622   -758.12573    312470.16    15.094221 
  353000    1414.2846   -747.14585    326365.34    15.238212 
  353500     1337.429   -749.10932     319075.5    15.302067 
  354000     1523.573   -760.21512    295077.99     15.36185 
  354500     1464.957    -755.2779    279733.03     15.63891 
  355000    1448.3975   -770.16465    276692.21    15.137049 
  355500    1365.4684   -765.89558    287774.54    15.117665 
  356000    1451.7866   -769.67123    282125.07    15.156248 
  356500    1514.0649   -765.96147    280789.96    15.140747 
  357000    1495.8478   -772.26733    284027.94    15.128799 
  357500    1389.1555   -768.43444    285461.44     15.13394 
  358000    1544.3817   -760.74569    294902.12    15.102789 
  358500    1426.7859   -764.18952    301688.39    15.066564 
  359000    1550.7487   -760.68557    301502.06    15.107124 
  359500    1600.2785    -751.3767    301923.07    15.565957 
  360000    1454.6178   -744.08776    312829.66    15.597379 
  360500    1462.1775   -759.92866    294303.29    15.366442 
  361000    1426.2141   -765.88777    292589.74     15.10867 
  361500    1448.0683   -769.89979    290683.89    15.084942 
  362000    1448.7025   -765.46648    278251.83    15.084056 
  362500    1396.4747   -767.19671     285493.6    15.082514 
  363000      1449.08   -771.43994    285373.37    15.057604 
  363500    1500.9831   -768.78812    288364.06    15.157675 
  364000      1431.77   -762.60131    299456.97     15.06455 
  364500    1519.6901   -759.10404    319742.39    14.975883 
  365000    1548.4062   -750.19142    332019.33    14.921206 
  365500    1557.4567   -753.79295    316621.13    14.955173 
  366000    1503.2712   -756.65262    318974.38    14.964711 
  366500    1391.9334   -754.76932    317828.78    14.971193 
  367000    1611.3449   -754.74816    306396.52    15.361626 
  367500     1550.636   -762.26718     304049.6    14.996076 
  368000    1468.6204   -757.92165    299770.56    15.055302 
  368500    1519.6603    -760.4037    302169.87    15.057694 
  369000    1566.4457   -771.24254    282406.84    15.145686 
  369500    1411.4819   -760.41498    299557.92    15.306308 
  370000    1479.8747   -765.16786     293880.1    15.114499 
  370500    1486.3214   -745.33291    305787.18    15.698311 
  371000    1507.3239   -741.34672    305469.82    16.023865 
  371500    1324.3388   -738.51238    289121.54    16.345748 
  372000    1549.6078   -729.41704    318556.86    16.493743 
  372500    1515.6699   -729.83422    308513.63    16.385069 
  373000    1447.3702   -738.38292    294886.96    16.491446 
  373500    1408.3331   -741.80037    283246.06    16.433063 
  374000    1531.7624   -733.96801    301912.53    16.541185 
  374500    1560.9036    -735.4035    306879.68    16.412198 
  375000    1533.8031   -742.60701    285993.68    16.543857 
  375500    1490.6834   -730.40081    314174.11    16.296138 
  376000     1422.426   -737.75266    310924.46    16.047307 
  376500    1431.7312   -747.73032    286683.63    16.087994 
  377000    1454.1364   -739.49005    290604.58    16.521575 
  377500    1754.0259    -737.0755    308919.31    16.202163 
  378000    1354.6722   -739.79779    305613.08    16.181375 
  378500    1426.0888   -743.16253     282923.3    16.476943 
  379000    1514.1727    -736.5034    288455.76    16.820749 
  379500    1374.9909   -731.44244    299391.61    16.847758 
  380000    1553.1192   -729.45704    310461.04    16.848659 
  380500    1434.4937   -736.88975    295377.94    16.901031 
  381000    1521.2388   -742.80287    275441.59    16.932928 
  381500    1543.7292   -736.60876    287190.89    16.960107 
  382000    1415.4448   -733.41047    305955.43    16.886817 
  382500    1490.3439   -732.25284    301287.12     16.93265 
  383000    1432.2898   -742.77639    286789.54    16.676435 
  383500     1554.506   -738.88557    294374.17    16.415857 
  384000    1519.0243   -733.19709    312511.71    16.190966 
  384500    1496.6934    -737.8276    300509.65    16.306739 
  385000    1544.6743   -749.49465    289383.47    15.811015 
  385500    1634.7487    -740.7922    292844.92    16.417405 
  386000    1525.6119   -731.57422    305374.66    16.682139 
  386500    1572.2385   -740.11408       281160    16.887216 
  387000    1535.4597   -733.75683    301503.17    16.763507 
  387500     1620.273   -731.97383    304529.65    16.855956 
  388000    1543.0624   -736.68636    288628.69    16.801582 
  388500    1502.4746    -738.0369    299231.24    16.596542 
  389000    1590.8906   -735.80912    307396.83    16.323049 
  389500    1427.8556    -732.2627    300715.92     16.76712 
  390000    1449.6433   -741.31279    268019.57     16.83571 
  390500    1519.1115   -730.15157    301693.08    16.889209 
  391000    1425.4276   -729.04102     306333.7    16.995258 
  391500    1493.9269   -738.08483    295723.62    16.940282 
  392000    1506.1627   -737.96449    288390.22    16.934434 
  392500    1564.7013   -734.57842    294963.22     16.82899 
  393000    1535.7364   -726.51895    323787.44    16.696264 
  393500    1578.0386   -724.87041    312141.27    16.886211 
  394000    1459.1562   -739.85095     285651.3     16.89777 
  394500    1458.7767   -727.71645     305936.5    16.935261 
  395000    1530.9667    -734.2673     300342.1    16.826369 
  395500    1534.1057   -735.40593    300189.98    16.466507 
  396000    1483.9368   -737.90876    291573.05    16.590295 
  396500    1589.7217   -729.34499     307852.7    16.840279 
  397000    1437.8929   -723.48633    326882.48    16.746021 
  397500    1394.9816   -731.81625    303294.49    16.859802 
  398000    1453.0155   -738.49238    279628.27    16.918348 
  398500    1567.0571   -738.50585    280242.22    16.863853 
  399000    1494.5034   -733.31996    298617.63    16.912043 
  399500    1568.4307   -729.11085    309290.19    16.924139 
  400000    1505.2625   -729.95122    308344.69    16.807278 
  400500    1492.6849   -735.71056    290809.65    16.846336 
  401000    1388.0948   -728.87947    307585.93    16.714597 
  401500    1555.5282   -736.05585    296073.57    16.484403 
  402000    1506.3334    -734.4818     298413.1    16.354907 
  402500    1591.2221   -736.43448    308945.25     16.15174 
  403000    1498.1245   -751.31533    284559.94    15.848593 
  403500    1503.1131   -759.76999    294685.51    15.338776 
  404000    1495.5783   -753.52102    304493.96    15.447393 
  404500    1450.5982   -743.79415    315307.24    15.676379 
  405000    1371.6793   -745.08494    320266.62    15.276637 
  405500    1447.2588   -757.04039    306512.44    15.304939 
  406000     1321.506   -760.00263    300425.59    14.986803 
  406500      1543.19    -772.5614     276155.7     15.07175 
  407000    1430.6974   -767.64256     285631.9    15.071107 
  407500    1551.5207   -768.37711    294810.88    15.104383 
  408000    1492.0599   -763.25705    306759.19    15.118864 
  408500    1358.3343    -758.2091    312924.37    15.130448 
  409000    1520.2475   -747.51052    317485.67    15.403929 
  409500    1584.6269   -747.41793     332814.2    15.163256 
  410000    1406.3161   -756.19246    314434.09    15.183407 
  410500    1594.0051   -760.27166     301209.1    15.329037 
  411000    1540.4382   -758.76597     283578.1    15.580185 
  411500    1498.7992   -749.09257    285220.35    15.973934 
  412000    1605.1574   -748.18804    302754.07    15.684042 
  412500    1426.8678   -747.36438    319612.41    15.415133 
  413000    1494.0675   -752.80544    308834.76    15.380427 
  413500    1607.2609   -758.72997     305200.4    14.954929 
  414000    1523.5178   -763.10314    298997.85    15.082702 
  414500    1472.5466    -762.7202    296882.57    15.136839 
  415000    1610.0927   -762.96688    293016.97    15.226883 
  415500    1555.3108   -763.43093    286872.94    15.324393 
  416000    1493.5929   -773.56352    287942.01    15.165741 
  416500     1531.975   -758.30759    298592.08    15.336804 
  417000    1481.9955   -764.71521    293094.71    15.205826 
  417500    1399.9232   -763.81961    298358.55    15.129394 
  418000    1507.3468    -751.2081     306167.4    15.383748 
  418500    1520.8414   -760.41939    307045.78    15.051761 
  419000     1447.249   -758.73382    300932.22    15.073188 
  419500     1470.227   -761.08419       285250    15.437072 
  420000    1442.1634   -767.76334    288159.09    15.125233 
  420500    1486.7811   -763.32414    294630.68    15.126257 
  421000    1572.3924   -768.42936    289920.86    15.137706 
  421500    1503.5514   -757.14217    298772.39    15.174652 
  422000    1491.7762     -757.921    308949.31     15.18919 
  422500    1560.5891   -747.42403    321723.35     15.29677 
  423000    1530.1178   -751.95172    321452.71    14.977196 
  423500    1489.8496   -760.21086    305998.86    15.059301 
  424000    1505.5793    -762.8143    302584.81    15.041206 
  424500    1490.5549   -762.56647    304469.85    15.078685 
  425000    1486.6471   -768.53435    275816.17    15.137601 
  425500    1405.1672   -769.67615    278600.54     15.21323 
  426000    1477.8754   -765.96965    285216.68    15.115425 
  426500    1369.4064   -764.35409     294493.7    15.096357 
  427000    1487.6967   -762.90288    305709.65    15.135571 
  427500    1392.3678   -757.71125    296766.64     15.38339 
  428000    1300.9471   -765.28909     294260.6    15.043341 
  428500    1454.4516   -753.81821    289709.12    15.609061 
  429000    1454.2625   -741.93684    295340.17    16.041771 
  429500    1461.9869   -724.05248    332239.32    16.091931 
  430000    1561.8682   -736.32875     297990.8    16.410075 
  430500    1484.5497   -734.87207    307129.43    16.203361 
  431000    1726.7821   -737.69942    299476.38    16.358962 
  431500    1353.9401   -736.25504    289265.09    16.607983 
  432000    1533.2897   -728.36172    304222.83    16.716006 
  432500     1513.149   -729.85089    308516.53    16.755642 
  433000    1519.6114   -735.11525    301537.22      16.6469 
  433500    1428.6028   -740.62325    285695.03    16.416144 
  434000    1561.7405   -734.76746    298541.48    16.753701 
  434500    1513.7281   -737.53438    295235.65    16.619722 
  435000    1559.5714   -731.65417     309746.6    16.671561 
  435500    1550.0567   -726.39471    312844.71    16.826464 
  436000    1432.0046   -730.03959    308542.72    16.784827 
  436500     1553.358   -732.67165    296781.76    16.833747 
  437000    1516.2666   -740.91254    283327.51    16.835062 
  437500    1656.0462   -727.39074    308523.04    16.851371 
  438000    1448.9681   -739.89035    299976.79    16.239589 
  438500    1443.7018   -745.82111    290185.86    16.257353 
  439000    1542.3991   -725.77299    323608.61    16.401119 
  439500    1478.8209   -730.55603    301972.06    16.857957 
  440000    1574.0189   -732.45164    300656.29    16.926964 
  440500    1462.7209   -738.34654    297188.63     16.37699 
  441000    1412.3838   -735.43866    301772.39    16.472225 
  441500    1461.4552   -730.58699     303448.8    16.981706 
  442000    1551.9884    -739.5747    291218.79    17.129237 
  442500    1532.3495    -732.0258    305857.08     16.98536 
  443000    1535.9721   -725.10567    317138.28    16.853851 
  443500    1569.2956    -735.5485    295074.66    16.751327 
  444000    1645.0699   -744.11165    287757.77    16.717721 
  444500    1416.1115    -740.1169    294334.23    16.493112 
  445000     1479.262   -728.33323    311972.11    16.540211 
  445500    1605.0492    -744.4267    295935.29     15.98008 
  446000    1480.9124   -747.02535    297738.52    15.781067 
  446500    1517.7733   -762.32716    302111.72    15.003498 
  447000    1515.1419   -757.78521    295807.85    15.384547 
  447500     1533.547   -761.91204    298731.09    15.201008 
  448000    1393.5708     -754.889    289698.12    15.499479 
  448500    1456.4579   -742.32223    301995.84    15.872526 
  449000    1480.1468   -755.95965     302526.7    15.358098 
  449500    1467.8594   -758.31577     304754.1    14.965736 
  450000    1572.9037   -754.80584    320446.61     14.87654 
  450500    1407.4049   -753.60425    304873.22    15.346439 
  451000    1432.4255   -755.72575     290241.2    15.460903 
  451500    1430.3586   -770.68176    284104.16     15.05924 
  452000    1495.1265   -759.49225    292995.08     15.40113 
  452500    1525.6757   -769.81255    278279.88    15.320733 
  453000    1581.2606   -763.86685    289101.39    15.443665 
  453500    1504.8598   -761.18763    303547.22    15.022337 
  454000     1480.222   -760.97328    306745.27    14.964515 
  454500    1677.8175   -754.75173    310558.96    15.301767 
  455000    1456.1996   -750.94994    328550.31    15.030121 
  455500    1637.0198   -757.64852    313823.17    15.072978 
  456000    1552.3381   -757.51387    313582.25     15.00674 
  456500    1389.7497   -761.89291    304778.93    15.050277 
  457000    1548.9318   -772.08425    280590.01    15.200889 
  457500    1464.0988   -771.15209     280814.1    15.080816 
  458000    1450.1294   -771.98035    283601.31    15.103317 
  458500    1332.5382   -763.96151    292246.42    15.058673 
  459000    1512.3906   -757.21335     310327.1    14.978883 
  459500    1607.6808   -755.42924    318681.46    14.952802 
  460000    1630.6362   -753.28183    321569.23    15.027621 
  460500    1558.2243   -757.08604    314503.95    15.047794 
  461000    1648.1767   -756.31773    307571.44    15.050173 
  461500    1538.2468    -765.7966    290358.66    15.083468 
  462000    1533.8837   -756.55715    296956.83    15.467875 
  462500    1517.7908   -757.24138    309046.87    15.073107 
  463000    1462.7817   -759.58997     310788.2    14.987652 
  463500    1544.6912   -757.24238    307502.57    15.355111 
  464000    1504.5566   -763.00579    290846.49    15.025742 
  464500    1389.4524   -766.85845    284523.56     15.08235 
  465000     1518.126   -766.69342    279506.09    15.108636 
  465500    1427.9677   -774.89112    262066.69    15.146248 
  466000    1525.1053   -765.69972    290698.79    15.125811 
  466500    1565.8985   -764.88338    299810.63    15.005678 
  467000    1473.9004   -747.95676    317365.71    15.247637 
  467500     1493.767   -757.54976    316043.08    15.160252 
  468000    1382.1989   -749.68625    306920.85    15.483862 
  468500    1432.6285   -764.01451    297209.68    15.136182 
  469000    1489.1654   -760.72494    302380.57    15.145566 
  469500    1497.3558   -767.81774    289169.36    15.113693 
  470000    1415.9036   -760.44682     291866.2    15.480741 
  470500    1474.9213   -759.50611    294575.81    15.401294 
  471000    1553.3922   -763.18412    291955.04    15.214256 
  471500    1592.4756    -765.5712    294542.32    15.298223 
  472000    1449.5522   -761.74656    294087.26    15.267705 
  472500    1486.1076   -746.85934    309971.68    15.532958 
  473000    1479.2377   -747.11737    315474.23    15.475722 
  473500    1580.0691   -751.31229    321556.12    15.176685 
  474000    1490.1131   -748.94413    320134.22     15.28007 
  474500    1493.1909   -752.40164    317451.58    15.130865 
  475000    1402.5743    -754.3178     309876.3    15.327844 
  475500    1605.6527    -759.9017    293174.22    15.341962 
  476000    1441.6915   -764.69557    288581.72    15.326637 
  476500    1357.9806   -773.53641    269442.63    15.247029 
  477000    1492.5041   -763.61293    293842.87    15.237793 
  477500    1517.0873   -761.40829    299311.88    15.186767 
  478000    1634.5663   -751.44521    310160.52    15.302722 
  478500    1537.4156   -749.32279    323430.11    15.305143 
  479000    1514.2731    -759.6835    308869.73     15.18075 
  479500    1519.0137   -760.09669    305929.01    15.103118 
  480000    1593.9513   -764.47918    288473.12    15.089601 
  480500    1464.4002    -769.6974    276632.18    15.204071 
  481000    1488.5388   -760.55917     295906.3    15.261599 
  481500    1467.5411   -754.05818    306921.14    15.397062 
  482000    1500.9682   -755.20033    326588.07    14.954392 
  482500    1576.7014   -753.27956    320275.47    15.235734 
  483000     1522.491   -759.89827    309178.55    15.275028 
  483500    1551.5727   -746.04583     307591.8    15.463098 
  484000    1503.3358   -765.58207    293921.11    15.138764 
  484500    1545.0444   -763.81394    292563.87    15.159352 
  485000    1550.4882   -764.93652    290887.17    15.327072 
  485500    1408.6206   -758.56482    299209.35     14.97824 
  486000    1550.8623     -750.053     305257.6    15.595326 
  486500    1553.4216   -739.82761    305494.16    15.920023 
  487000    1482.9028   -748.15351    285432.73    15.816009 
  487500    1359.1647   -754.80298    273689.97    15.822341 
  488000    1392.9519   -743.38833    300937.56     15.81412 
  488500    1624.7511   -737.72077    313260.25    15.889223 
  489000    1458.3662    -735.0479     304352.1    16.087264 
  489500    1391.5815   -757.29979    273585.11    15.704784 
  490000    1432.9336   -761.74352    292591.14    15.287264 
  490500     1440.226   -765.48194    295431.08    15.158424 
  491000    1497.1439   -754.84148    303207.75      15.3726 
  491500    1326.7819   -752.56259    316200.67    15.274846 
  492000    1656.2518   -760.66836    305446.03    15.265825 
  492500    1479.6901   -755.64623    306646.69    15.324748 
  493000    1564.9791   -762.01312    303834.37    14.996701 
  493500    1545.3555   -766.07014    291922.31     15.15574 
  494000     1490.534   -766.83151    276903.48    15.155485 
  494500    1430.0789   -771.28274    274830.09    15.280134 
  495000    1446.9525   -766.11355    286739.41    15.332384 
  495500    1419.5293   -756.59292    295270.14    15.471448 
  496000    1544.3004   -762.28657     297398.4    15.253442 
  496500    1488.8911   -764.09599    297965.09    15.169357 
  497000    1550.7792   -744.18907    319318.76    15.485235 
  497500    1450.3546   -746.83751    319585.93    15.252007 
  498000    1482.6411   -752.48249    308231.14    15.502116 
  498500    1555.3305   -749.26346    304652.14    15.425406 
  499000    1532.5901   -763.27122    292349.01    15.254806 
  499500    1450.1302    -760.1105    287827.17    15.327861 
  500000    1417.4616   -764.04922    277985.49    15.469231 
  500500    1556.1272   -756.76392    286323.01    15.531795 
  501000     1430.695   -761.69368    297023.08    15.215931 
  501500    1468.1734   -762.22955    297325.19    15.272325 
  502000    1497.3855   -754.99838    309615.77    14.886169 
  502500    1573.1576   -753.94733    309440.44    15.306896 
  503000    1673.2683   -763.52611    301094.94    15.076025 
  503500    1450.4608   -764.97966    295316.59    15.039959 
  504000    1475.3804   -763.64837    281688.71    15.356442 
  504500    1390.9582   -764.77697    285398.69    15.078928 
  505000    1354.3178   -764.92251    289260.41    15.049089 
  505500     1505.141   -755.08681    304835.23    15.427437 
  506000    1420.3625   -754.26706    303262.52    15.292207 
  506500    1514.8339   -758.26618    303933.26    15.044074 
  507000    1512.4575   -753.06591     311790.6    15.364174 
  507500    1456.8684   -751.87534    314293.19     15.32023 
  508000    1460.6769   -754.00995    308572.15    15.259654 
  508500     1377.751    -764.8326    294903.33    15.097029 
  509000    1374.4362   -752.82237    302650.55    15.345495 
  509500    1575.4424   -761.34151    299308.44    15.055027 
  510000    1441.1345   -744.87665    306597.51    15.525186 
  510500    1644.0701   -763.77837    300115.53    14.956144 
  511000    1502.9646   -755.42895    298577.12    15.474315 
  511500    1456.8392   -753.82623    284262.58    15.745175 
  512000    1511.2405   -738.14968    303740.34    16.192127 
  512500    1490.1991   -738.12453     312684.9    16.045041 
  513000    1495.3785   -726.61294    317917.31      16.5355 
  513500    1428.7357   -737.06268    289698.36    16.935263 
  514000    1492.7664   -730.16163    310277.71    16.685117 
  514500    1492.2235   -737.41722    296728.53    16.683222 
  515000    1370.3959   -738.37663    305309.49    16.196553 
  515500    1573.2816   -736.02356    324708.14    15.604651 
  516000    1508.4603    -734.7124    314753.16    15.786426 
  516500    1526.2093   -759.22902    293262.49    15.524396 
  517000    1414.5883   -762.51344    288018.91    15.330027 
  517500    1547.7337   -771.01195    272287.07    15.248645 
  518000    1486.7023   -762.02369    285363.02    15.374721 
  518500    1503.5783    -765.4361    288320.14    15.217115 
  519000    1521.1314   -756.34909    306355.34     15.18444 
  519500    1432.1327   -757.43111    308397.78    15.152588 
  520000    1499.6271   -754.95714    323260.16    14.980697 
  520500    1556.1544   -752.30678    308867.37    15.409024 
  521000    1465.8145   -754.10217    294785.49    15.526658 
  521500     1602.593   -753.24889    281380.18    15.863455 
  522000    1468.5401   -754.25027    280486.25     15.82668 
  522500    1355.6272   -752.91367    290167.75    15.681731 
  523000    1351.0902   -757.15386    303310.61      15.2076 
  523500    1582.0018   -760.48035    302528.18     15.37353 
  524000    1371.8066   -736.97022    322688.19    15.714696 
  524500    1555.8413   -741.50842    298163.85    16.168393 
  525000    1388.9371    -740.5931    286753.78     16.61588 
  525500    1477.0785     -733.066    305821.29    16.544959 
  526000    1474.8198   -745.94185    283387.71    16.261236 
  526500    1496.2978   -725.32698    317682.61    16.802417 
  527000    1605.1264   -732.80942    310927.85    16.405606 
  527500    1514.7664   -734.24054    297851.99    16.442206 
  528000    1473.0634   -740.23859    284377.95    17.136808 
  528500    1434.1788   -733.66487    308059.74    16.511173 
  529000    1429.8073   -733.07911     308910.5    16.544434 
  529500    1533.3736   -725.28657    323378.13    16.472822 
  530000    1487.8775    -736.1775    294043.28    16.604279 
  530500    1466.2929   -744.95084    290595.59     16.28218 
  531000    1547.0271   -742.71209    311967.69    15.704396 
  531500    1518.5798   -750.51642    309289.57    15.391408 
  532000    1545.4124   -756.51727    288578.14    15.542205 
  532500    1492.7829   -748.92171     284567.7    16.029071 
  533000     1419.954   -743.61462    299901.87    15.946791 
  533500    1608.9539    -739.2298    291763.81    16.372441 
  534000    1292.9223   -734.70199    299552.63    16.671522 
  534500     1542.567    -733.0571    311695.73    16.315277 
  535000    1436.7621   -741.49832    297053.81     15.86315 
  535500    1487.7045   -755.59352    287432.45    15.597695 
  536000    1537.4319   -762.15698    287187.67    15.262285 
  536500    1608.3057   -766.38809     296831.4    15.097825 
  537000    1401.0975   -759.44832    307529.46     15.05303 
  537500    1455.8808   -757.07959    309322.88    15.198194 
  538000    1422.2924   -740.73759    309900.31    15.680367 
  538500    1563.6186   -755.22085    311719.85    15.188578 
  539000    1475.7976   -769.40874    292951.91    15.072409 
  539500    1595.9933   -772.30784    277907.96    15.114062 
  540000    1312.3079   -767.84295    278491.92    15.315416 
  540500    1425.4366    -758.1343    292683.42    15.363352 
  541000    1649.8178   -754.61848    298052.57    15.431446 
  541500     1432.903   -745.22078    321699.49     15.46821 
  542000    1482.2206   -743.96886    300065.53    15.915427 
  542500    1420.0213   -743.65834    286062.67    16.197826 
  543000    1444.7482   -737.04427    294458.26    16.551789 
  543500    1464.3001   -733.63542    305659.72    16.158149 
  544000    1571.7096   -735.88825    312922.32    16.152867 
  544500    1582.1288   -756.97789     286264.7    15.761688 
  545000    1566.8982   -765.18658    290208.79    15.240063 
  545500    1603.9117   -763.30084    291148.81    14.988311 
  546000    1542.9909   -755.99348    295118.49     15.47874 
  546500    1472.6212   -753.32972    316826.83    15.192241 
  547000    1549.4679   -757.20426    309111.84    15.237799 
  547500    1465.8537    -759.3163    306317.97    15.190943 
  548000    1528.8654   -742.91253    305442.64     15.74229 
  548500    1543.7785   -765.78882    289478.72    15.257936 
  549000     1513.796   -765.52615    290188.22    15.198138 
  549500     1302.136   -761.19941    284183.16    15.470226 
  550000    1604.2926   -766.87417    283212.01    15.015585 
  550500    1644.3196    -760.6027    293395.87    15.363496 
  551000    1498.3867   -753.44803    307666.77    15.436363 
  551500    1514.3868   -743.63767    324865.38    15.396586 
  552000    1458.9147    -748.1103    315952.68    15.296086 
  552500     1628.913   -759.06296    303083.26    15.164226 
  553000    1474.3794    -758.4477    296265.07    15.451101 
  553500    1518.5114   -745.86741    292900.62    15.991729 
  554000    1519.0072     -734.847    301343.19    16.506409 
  554500    1505.5393   -734.06925    307612.91    16.410282 
  555000    1500.2795   -739.66825    305375.99    15.923877 
  555500    1417.6695    -742.6753    290185.97    16.247303 
  556000    1595.5068   -729.81487    309901.17    16.641467 
  556500    1405.9889    -738.6681    285395.39    16.487533 
  557000    1493.1623   -726.50081    325347.66    16.454292 
  557500    1556.5077   -746.34373    290979.19    16.070286 
  558000    1450.8589   -751.44144    277540.68    15.884112 
  558500    1294.6775   -755.06033    278221.86    15.799264 
  559000    1508.0781   -741.37723    305291.31    15.704623 
  559500    1483.8985   -755.36283    303080.76    15.222379 
  560000    1533.8086   -758.95582    304651.18    15.178357 
  560500    1567.1266   -754.07346    304044.97    15.237032 
  561000    1443.8614    -761.5838    291972.59    15.346683 
  561500     1610.218   -761.89375    293601.03    15.277444 
  562000    1673.7187     -758.579    284583.18    15.670131 
  562500    1612.8128   -742.05128    304862.18    15.964409 
  563000    1484.4284   -736.31347    307262.51    16.254126 
  563500    1455.8953    -732.2621    299634.65    16.794854 
  564000     1449.488   -738.55668    283481.17    16.846015 
  564500    1500.0251   -736.90762    301127.04     16.52113 
  565000    1498.4382   -730.77114    310260.62    17.065627 
  565500    1598.3708   -736.89801    293506.99    16.975968 
  566000    1602.7999   -734.49305    301852.84    16.843846 
  566500    1509.5013    -738.2464    294168.91    16.771017 
  567000    1564.1557   -733.24988    303969.99    16.888551 
  567500    1552.8512   -742.52035    288054.19    16.402891 
  568000    1477.9374   -740.57229    288633.04    17.049513 
  568500    1710.9442   -733.42246    301412.65    16.731366 
  569000    1422.5048   -733.40116    306887.86    16.335821 
  569500    1485.4393   -737.81109    294553.07    16.802375 
  570000    1632.4832   -731.11792    301712.31    16.772699 
  570500    1565.0679   -728.38454    321473.62    16.822599 
  571000    1494.2177   -726.91342    319108.46    16.771552 
  571500    1430.4961   -739.29028    284083.76    16.999897 
  572000     1482.406   -737.47771    290166.74    16.804012 
  572500     1499.147   -727.91426    313223.39    16.766215 
  573000    1586.5732   -726.54385    318529.38    16.929756 
  573500    1428.9443    -730.0162    302722.04    16.789735 
  574000    1358.0367   -734.45574    302560.91    16.630086 
  574500     1472.598   -734.32641    307205.93    16.294704 
  575000    1581.4699   -745.74845    290311.37    16.077261 
  575500    1410.5997   -745.13702    302716.62    15.658738 
  576000    1425.0733   -740.43652    321856.14     15.69677 
  576500     1559.361   -739.23525     313114.2    15.685476 
  577000     1444.568    -753.8405    289150.81    15.824831 
  577500    1470.5659    -738.5327    308436.48    16.148636 
  578000    1448.0786   -742.07641    305139.57    15.881118 
  578500    1331.7171   -760.57303    297208.05    15.202809 
  579000    1531.5606   -759.33467    296357.53    15.289966 
  579500    1390.5288   -758.74426    286019.77    15.532951 
  580000    1488.7594   -754.02957    275195.26    15.986703 
  580500    1490.2261   -745.47341    294690.61    15.915024 
  581000     1539.627   -742.96868    310082.34     15.81504 
  581500    1594.4574   -741.32737    313836.93    15.642882 
  582000    1624.6435   -740.58543    289149.49    16.196339 
  582500    1445.5219   -733.60397    294009.79    16.784616 
  583000    1630.0177    -732.2865    308253.13    16.650924 
  583500    1436.7077   -745.22669    277910.78    16.414124 
  584000    1562.4272   -723.93645    317487.57    16.710885 
  584500    1393.2023   -734.74269    292233.64    16.842234 
  585000    1538.0855   -739.94608    287005.33    16.656774 
  585500    1487.7671   -735.25065    297412.99    16.790739 
  586000     1423.121   -734.91406    305445.39    16.404665 
  586500    1569.7783   -730.38708     304695.1      16.6968 
  587000    1524.6409   -731.00724    300598.39    16.863316 
  587500    1607.5583    -735.5271    290888.56    16.909844 
  588000    1503.1607   -740.07178    282433.42    16.864554 
  588500    1602.9776   -732.35746    302957.06    16.722514 
  589000    1511.4534   -734.35864    311551.13    16.345067 
  589500    1382.4994   -733.80729    296812.37    16.782798 
  590000     1565.964   -739.79525    294848.04    16.663125 
  590500    1580.2364   -735.77191    303591.96    16.416215 
  591000    1544.3209   -731.77805     301109.2    16.965113 
  591500    1618.1777   -740.47759    289268.46     16.42906 
  592000    1618.7407   -727.79769    316453.44    16.288725 
  592500    1585.2725   -737.05546    295113.19    16.748849 
  593000    1359.3086   -732.69093    294767.27    16.903332 
  593500    1696.2103   -734.70072    302859.75    16.322472 
  594000    1553.5156   -736.94026    294614.72    16.429387 
  594500    1355.2792   -737.55464    288518.89     16.80505 
  595000    1350.3081   -737.37509    294982.67    16.664467 
  595500    1278.1299   -729.80863    305792.27    16.295015 
  596000    1566.7126   -734.83718    289151.43    16.992419 
  596500    1520.3959   -733.39939    294849.15    16.928579 
  597000     1555.618   -727.58517    310639.52     16.50811 
  597500    1373.5128   -733.24165    309391.29    16.305547 
  598000    1485.3525   -737.36819    294990.85     16.64411 
  598500    1541.6634   -732.95705    303785.17    16.569129 
  599000    1536.6502   -732.52061    298324.63    16.886159 
  599500    1438.9174   -738.51988    294444.49    16.476469 
  600000    1522.7951    -731.6829    308222.25    16.515539 
  600500    1427.2848    -735.4816    291379.33    16.907975 
  601000    1535.1496   -742.59864    293518.72    16.206706 
  601500    1611.1057    -729.0595    317085.29    16.447086 
  602000    1473.1906   -732.68622    302452.75    16.790049 
  602500    1493.3956   -737.73824     285288.5    16.819226 
  603000    1472.0813   -735.70739     297434.9    16.520248 
  603500    1484.3572   -725.84711    322660.69    16.764301 
  604000    1510.7611   -727.74021    312840.46    16.940998 
  604500     1471.339   -740.37765    287462.59    16.535071 
  605000    1620.2485   -741.60682    301499.33    16.109317 
  605500    1603.9278   -749.77217    279533.28    15.961665 
  606000    1511.5269   -755.02836    295818.32    15.463936 
  606500    1501.9198   -754.69991    314304.28    15.105384 
  607000    1542.0257   -752.74442    313929.17    15.245998 
  607500    1536.9837   -756.34128    309520.15    15.137455 
  608000    1513.6001   -757.43344    309987.72    15.124465 
  608500    1480.0614      -756.95    299891.19    15.410786 
  609000    1390.0158   -765.89299    295953.44    15.185685 
  609500    1468.5528   -761.46526    289446.76    15.263424 
  610000    1626.0188   -766.39506    281095.61    15.277163 
  610500    1463.4005   -763.10468    289352.52    15.283764 
  611000    1395.7526    -761.9791    289540.43    15.375058 
  611500    1585.1472   -762.28354    300338.69    15.181814 
  612000    1488.4102   -762.06862     302032.3    14.927673 
  612500    1444.8919   -759.09867    303489.36    15.193694 
  613000    1456.1554   -761.54523    298058.25    15.205895 
  613500    1379.2351    -751.1977    291541.33     15.81416 
  614000     1459.258   -734.99286    305188.09    16.613936 
  614500    1412.7701   -732.26415    304254.54    16.851597 
  615000     1474.716   -739.30089     280693.1    16.953457 
  615500     1391.581   -728.73518    298887.44    16.848335 
  616000    1397.5105   -727.18476    320386.14    16.649584 
  616500    1384.8379   -738.68387    295514.15    16.478422 
  617000    1383.9184   -737.58834    289730.33    16.571698 
  617500     1400.202   -740.14711    294236.28    16.535676 
[...]
 4848500    1385.9136   -761.86188    294700.38    15.103094 
 4849000    1470.0682   -747.21269    305915.64    15.657832 
 4849500     1501.932   -759.42233    310841.27    15.137394 
 4850000    1485.2228   -761.86028    302980.98    15.072974 
 4850500    1564.0581   -753.19056    295433.81     15.59261 
 4851000    1462.3888   -764.65541    288291.52    14.980696 
 4851500    1538.3334   -769.77453    283393.56    15.237402 
 4852000     1519.206   -769.28044    287402.67    15.187241 
 4852500    1396.7274   -764.20908    295881.82    15.105869 
 4853000    1547.4863   -759.50113    312281.12    14.989181 
 4853500    1569.3033   -749.07245    321377.14    15.332646 
 4854000    1523.0456   -759.31828    299649.21    15.039114 
 4854500    1544.5464   -763.06236     292235.1    15.298826 
 4855000    1399.8506   -760.79816    294487.02    15.303369 
 4855500    1658.4252    -740.5938    313246.53    15.776297 
 4856000      1436.04   -737.14824    291153.25    16.365429 
 4856500    1480.7649   -733.62705     303942.9    16.708882 
 4857000    1615.4208   -730.27786    307231.75    16.768472 
 4857500    1607.5319   -745.37386    273909.03    16.639276 
 4858000     1526.291   -735.87121    293630.55     16.66776 
 4858500    1624.7827   -725.64845    322974.45    16.976997 
 4859000    1496.2516   -736.45656    297814.91    16.744935 
 4859500    1527.6138   -742.19173    273572.44    17.065371 
 4860000    1492.6695   -725.90304    310988.26    16.799947 
 4860500    1464.6378   -733.65503    301351.22    16.769533 
 4861000    1593.5353   -733.44965    296742.61    16.894195 
 4861500    1489.3512   -720.42564    327965.43    16.766365 
 4862000    1556.8226   -735.02942    307895.79    16.213589 
 4862500    1567.3988    -739.0898    290959.99     16.45006 
 4863000    1571.6455   -734.99828     293897.7    16.906086 
 4863500    1525.5352   -733.55131    304616.59    16.730009 
 4864000    1557.1715    -729.7347    310538.11    16.671364 
 4864500    1659.2546   -743.24805    282914.28    16.332518 
 4865000    1462.1171   -742.00466    288374.64    16.360045 
 4865500    1534.0098   -728.74235    313247.49    16.716579 
 4866000    1582.4261   -733.46593    298297.75    16.645098 
 4866500    1373.1062   -735.08379    305671.55      16.2388 
 4867000    1573.2711   -745.10079    314282.47    15.579358 
 4867500    1462.3953    -746.3157     307632.9    15.551874 
 4868000    1389.8048   -759.52493    293919.47    15.272327 
 4868500    1651.1618   -762.80608    296071.53    15.321001 
 4869000    1496.2684   -763.63177    295129.58     15.26453 
 4869500    1619.6056   -765.90525    288452.99     15.03033 
 4870000    1498.4394   -758.09099    284620.82    15.525606 
 4870500    1588.1794   -765.85021    296081.23    15.176496 
 4871000    1487.2652   -763.16905    300226.73    15.036803 
 4871500    1415.8795   -754.74662    317330.15    15.147541 
 4872000    1530.2896   -755.00847    319358.96    15.053449 
 4872500    1456.8289    -759.2462    310281.27    15.140585 
 4873000    1660.7837   -762.71687    303683.15    15.259748 
 4873500    1567.9558   -764.23546    294445.37    15.213781 
 4874000    1568.5815   -764.13255    291752.36    15.287275 
 4874500    1397.6276   -766.63996    284653.12    15.358553 
 4875000    1559.8974   -765.25232    268766.32    15.401846 
 4875500    1546.5306   -766.49361    284772.77    15.199168 
 4876000    1525.0155   -762.91402    301537.69    15.116459 
 4876500    1383.9757   -748.26807    310473.92    15.374482 
 4877000    1667.7066   -758.79097    310751.25    14.997785 
 4877500    1588.1654   -750.23221    313910.37    15.465918 
 4878000     1358.218   -747.60118    309360.99    15.623928 
 4878500    1506.5123    -765.5986     295803.1    15.161187 
 4879000    1560.2593    -762.3411    303535.09    15.108189 
 4879500      1583.91   -748.59012     322280.1    15.211149 
 4880000    1451.5764   -755.01884    318209.05    14.990822 
 4880500     1367.471   -759.74976    305451.75    15.231215 
 4881000    1434.7527   -765.02445    280242.41    15.423315 
 4881500    1499.3922   -766.46545    286420.41    15.069651 
 4882000    1532.8509   -756.82507     290825.6    15.331845 
 4882500    1605.8339   -754.55794    316017.42    15.192991 
 4883000    1635.2791   -751.94649    318406.53    15.109383 
 4883500    1383.7779   -754.67412    306220.05    15.366249 
 4884000    1435.2586   -763.88109    288530.92     15.32161 
 4884500    1521.6935   -762.32987    286857.29    15.443945 
 4885000    1538.2476   -755.46791    308335.16    15.214214 
 4885500    1439.7355    -758.0527    305756.84    15.229944 
 4886000    1454.5077   -762.99925    301666.96    15.171815 
 4886500    1500.9472   -765.21452    294033.36    15.242949 
 4887000    1606.2723   -766.95672    285370.51    15.329683 
 4887500    1543.0392   -754.96102    290663.39    15.733089 
 4888000    1448.6983   -768.01469     291692.2    15.040536 
 4888500    1586.7763   -758.90513    303221.34    15.326354 
 4889000    1573.8394   -755.55638    309536.61    14.972078 
 4889500    1462.1728   -758.65042    304496.39    15.279899 
 4890000    1517.7122   -759.10449    308942.89    15.098609 
 4890500    1498.6019   -757.86597    304093.67    15.335743 
 4891000    1592.7706   -764.21111    292186.97    15.156113 
 4891500    1666.7185   -758.30482    299440.01    15.278448 
 4892000    1530.0572   -749.15671    304996.69    15.513569 
 4892500    1512.6203   -743.15533    320288.56    15.549905 
 4893000     1610.187   -752.17153    303625.12    15.540916 
 4893500    1504.9469    -752.6978    288528.91    15.691301 
 4894000    1427.0121   -755.58341    275223.07    15.889922 
 4894500    1463.2869   -750.62096    285635.32    15.718091 
 4895000    1432.1215   -755.14812    286718.82    15.677722 
 4895500    1517.8613   -736.23989     309905.3     15.99495 
 4896000    1679.0348   -734.02173    305667.59    16.316389 
 4896500    1455.8378   -741.60732     290795.3    16.264568 
 4897000    1422.0625    -739.9377    299823.49    16.146097 
 4897500    1500.1416   -734.96342    289222.37    16.966561 
 4898000    1547.2375   -728.70328    302885.85    16.707094 
 4898500    1470.2718   -739.62967    298969.75    16.165783 
 4899000    1461.1271   -746.22792    274933.51    16.306364 
 4899500    1616.9854   -740.23364    295489.72    16.163386 
 4900000    1614.8276   -731.53385    310686.43    16.337245 
 4900500    1396.0831   -729.18205    306470.78    16.808848 
 4901000    1566.4923   -737.34706     297766.7    16.659063 
 4901500    1407.5208   -736.10736    310899.39    16.411808 
 4902000      1366.55   -738.16594    280258.44    16.930834 
 4902500     1482.346   -733.97189    303637.21    16.494977 
 4903000    1450.1447   -730.88143    294785.06    16.903136 
 4903500    1461.9187   -740.25014    295596.65    16.463221 
 4904000     1520.475   -736.38007     289975.9    16.836605 
 4904500    1419.5421   -732.70717    310114.67     16.31654 
 4905000    1390.2346   -727.71278    316271.83    16.759654 
 4905500    1507.2453   -739.48067    285910.14    16.775596 
 4906000    1686.0252   -736.28758    297877.12    16.489649 
 4906500      1546.05   -731.70822    308141.94      16.5207 
 4907000    1543.3762   -739.59839    289171.89    16.717548 
 4907500    1539.8505   -729.61304    314169.77    16.773466 
 4908000    1538.1104   -736.03701    298779.49    16.626215 
 4908500    1658.5575   -731.60684    305996.87    16.860732 
 4909000    1406.0001   -739.06694    274637.58    16.985669 
 4909500     1383.933   -736.77958    289741.99    16.847307 
 4910000    1546.6426   -733.93528    295032.64    16.824185 
 4910500    1434.0271   -739.41834    289172.63    16.521891 
 4911000    1495.0055   -739.71943    300848.66    16.350412 
 4911500    1474.4634   -736.05668    309785.43    16.139369 
 4912000    1444.0446   -744.51158    287902.87    16.113706 
 4912500    1398.6265   -733.67815    296282.17    16.867738 
 4913000    1563.8302   -728.78165    314117.89    16.495223 
 4913500    1457.1311   -732.60364    303653.14    16.775072 
 4914000    1439.8874   -743.05984    285661.45    16.379313 
 4914500    1417.6915   -741.14622    291910.59    16.208322 
 4915000    1511.0059    -752.1796       269819     16.11626 
 4915500    1517.0567    -732.9797    305214.35    16.381402 
 4916000    1569.4308   -736.65682    296543.23    16.577267 
 4916500    1504.7783   -741.81412    284082.24    16.646556 
 4917000     1647.326   -734.16435    306318.42    16.530471 
 4917500    1499.5404    -725.5678    309649.59    17.008684 
 4918000    1398.2124    -738.2676    294417.79    16.485427 
 4918500    1396.2495   -736.14171    298075.97    16.503207 
 4919000    1509.2116   -732.25047    310547.02    16.608656 
 4919500    1577.4032   -740.81836    294477.15    16.329485 
 4920000    1613.6128   -742.37659     307037.3    15.851622 
 4920500    1436.0554   -764.93161    298101.88    15.112903 
 4921000    1497.5051    -767.9259     296120.3     15.08882 
 4921500    1433.8182   -755.16468    300728.38    15.373885 
 4922000    1318.3899   -761.23932    305094.14    15.234647 
 4922500    1469.9949   -761.97161    299029.15    15.111087 
 4923000    1517.8537   -760.70791    296061.68     15.34685 
 4923500    1493.8218    -759.3485    296714.78    15.221716 
 4924000    1423.2735   -765.14357     294989.6    15.220958 
 4924500    1517.4268   -753.30415     292987.6    15.598802 
 4925000    1500.8327   -745.14365    307893.67    15.635476 
 4925500    1486.3987   -752.00203    323434.98    15.230031 
 4926000    1586.4486   -758.41584    312790.63     15.03936 
 4926500    1496.3859   -758.75915    299259.03    15.321135 
 4927000    1552.2718    -755.3644    279937.57    15.776241 
 4927500    1513.9805    -744.9104    283792.39    16.279497 
 4928000    1471.1842   -722.86089    321657.73    16.383145 
 4928500    1606.7503   -741.47611    287309.27    16.697925 
 4929000    1458.4368   -723.10196    321061.55    16.654062 
 4929500    1626.9576    -736.6545    298667.23    16.596362 
 4930000    1442.0738   -738.87202    285009.58    16.771736 
 4930500    1530.8207   -733.92739    301167.58    16.351725 
 4931000    1381.3714     -734.103    296300.77    16.294659 
 4931500    1568.9978   -754.59106     288764.5    15.678009 
 4932000    1404.8438   -736.64098    306435.69    15.889017 
 4932500    1534.6521   -730.86162     309793.7     16.50164 
 4933000    1539.7455   -740.19312    294815.09    16.401825 
 4933500    1602.3596   -731.84144    322200.72    15.836413 
 4934000    1476.0226   -740.22161    315521.29    15.705006 
 4934500    1539.7871   -746.57376    304287.29    15.793363 
 4935000    1354.5502   -757.03336    282609.17    15.514987 
 4935500     1424.283   -770.06741    281778.71    15.156064 
 4936000    1393.0902   -757.39099    291448.52    15.416674 
 4936500    1643.2288    -757.1139    309970.67      15.3531 
 4937000    1543.4998   -752.10821    326153.66    15.053227 
 4937500    1449.1238   -752.00906    327232.24    15.061786 
 4938000    1537.3588   -755.39297    316003.93    15.244408 
 4938500    1593.1931   -759.93654    304143.08    15.041642 
 4939000    1539.8277   -758.91556    308429.61     15.31567 
 4939500    1572.2949   -764.13553    293216.76    15.256241 
 4940000    1637.3308   -765.92709    286043.07    15.362904 
 4940500    1508.1488   -764.51321    280203.12    15.351041 
 4941000    1523.2344   -775.84283    268312.09    15.206291 
 4941500    1476.4326    -766.3071     294556.1    15.125085 
 4942000    1490.7884   -760.12469    310358.92    14.985192 
 4942500    1404.4968   -755.93999    315077.79    15.039926 
 4943000    1496.5956    -756.1406    311921.06    14.992574 
 4943500    1547.6368   -755.61962    308812.22    15.337168 
 4944000    1542.7018    -756.1338    299355.45    15.375387 
 4944500    1546.4463   -758.47583    294821.14     15.39439 
 4945000    1423.4891   -754.97207    297500.63    15.530616 
 4945500    1437.9464   -746.16361    289983.29    16.009428 
 4946000    1563.7695   -741.02598    288469.58    16.272156 
 4946500    1554.6749   -734.69344    300080.62    16.410436 
 4947000    1553.7104   -728.15479    312377.94    16.952347 
 4947500    1467.3314   -733.30896    300111.38    16.779167 
 4948000    1569.7868   -731.48925    304136.53    16.735781 
 4948500    1578.5356   -732.91939    304096.28    16.453227 
 4949000    1498.5625   -739.07728    288370.85    16.928961 
 4949500    1569.7126   -720.72799    324148.92     16.65914 
 4950000    1605.1421   -736.41749    291239.81    16.742144 
 4950500    1485.8538   -733.24307    293897.15    16.637535 
 4951000    1517.9112   -730.37068    297531.89     16.78202 
 4951500    1499.1115   -730.64434     310537.7    16.549825 
 4952000    1440.1117   -728.56663    305948.86    16.914231 
 4952500    1528.2015   -738.42988    295479.14     16.35639 
 4953000    1459.3444    -746.6997    288198.62    16.023052 
 4953500    1507.7054   -739.19542    289182.15    16.386828 
 4954000    1516.3177   -731.61741    303525.71    16.582907 
 4954500      1437.11   -746.23385    275351.75    16.461626 
 4955000    1581.3806   -727.98925    314577.39    16.757849 
 4955500     1475.067   -736.52704    301728.24    16.444198 
 4956000    1538.0105   -737.76923    292226.81    16.577674 
 4956500    1539.3414   -731.95345    315823.04    16.337921 
 4957000    1468.7335   -743.46529    290036.13     16.19275 
 4957500    1540.2588   -737.30098    308506.01    15.980232 
 4958000    1732.9888   -736.95341    296941.63    16.313568 
 4958500    1469.3177   -743.52479    291018.14    16.181598 
 4959000    1460.8419   -746.34171    277955.71    16.173636 
 4959500    1371.5183   -731.94181    313801.28     16.22319 
 4960000    1513.4045   -742.47491    302670.42    16.090897 
 4960500    1452.4897   -742.90569    284976.75     16.34948 
 4961000    1604.1246   -730.42618    305213.97    16.818437 
 4961500    1518.1573   -734.73841    310336.71    16.708391 
 4962000    1542.3697   -744.59048    283475.55    16.252373 
 4962500    1545.9501   -740.24182    292813.84    16.270356 
 4963000    1427.5175   -730.93083    310614.02    16.455197 
 4963500     1466.971   -725.92911    317063.76    16.566006 
 4964000     1498.312    -736.3063    305429.45    16.148799 
 4964500    1489.5883   -741.51599    294480.27    16.159169 
 4965000     1513.725   -745.81143    292610.24     16.01549 
 4965500    1651.4555   -738.23428    312414.21    16.045034 
 4966000    1596.0047   -731.25316    308056.55    16.551123 
 4966500    1479.5817    -730.2331     314967.3    16.582139 
 4967000    1547.1761   -739.21522    303736.23    16.016162 
 4967500    1520.4792   -736.54452    302641.16    16.260999 
 4968000    1558.8362   -735.08763    298597.78    17.094935 
 4968500    1430.4946   -732.80469    304340.42    16.801486 
 4969000    1504.2463    -735.2525    296227.26    16.763984 
 4969500     1603.046   -737.06363    298316.12    16.645591 
 4970000    1318.9513   -740.12946    305980.03    16.043304 
 4970500    1600.9126   -754.03858    292075.24    15.682353 
 4971000    1556.8746   -762.37909    296233.31    15.223649 
 4971500    1560.8046   -758.05802    295584.73    15.237952 
 4972000    1585.1471   -757.42034    305261.82    15.236492 
 4972500    1486.5447   -754.04946    308903.86    15.161803 
 4973000    1516.6611   -757.41707    304343.87    15.196779 
 4973500    1471.0999   -757.92115    303799.69    15.100065 
 4974000    1660.3325   -754.63235    292522.47    15.634321 
 4974500    1535.6981   -763.32295    292328.39    14.999953 
 4975000    1342.1182   -760.23699    303611.54    15.042724 
 4975500    1392.9446   -757.39534    312217.12    15.036004 
 4976000    1539.8486   -751.29353    311364.94    15.355487 
 4976500    1513.0777    -762.1979    303239.26     15.08475 
 4977000    1600.6629   -754.55102    286675.61    15.624114 
 4977500    1455.6622   -739.29254    304349.39    15.876458 
 4978000    1494.1745   -735.59043    299355.93    16.325371 
 4978500    1450.5046   -738.83537     300649.4    16.439812 
 4979000    1492.4408   -729.67324    312168.39    16.596171 
 4979500    1538.3442   -734.69176    297310.53    16.851725 
 4980000     1504.737   -735.85475    299943.48    16.523588 
 4980500    1578.9572   -724.28591    316549.18    16.817057 
 4981000    1457.4663   -733.42786    299028.78    16.699962 
 4981500    1391.4096   -740.56672    302735.58    16.038075 
 4982000    1489.8683   -758.96205    278876.24    15.675824 
 4982500    1567.9015    -765.1671    285020.83    15.335487 
 4983000     1430.192   -763.49029    291331.91    15.214831 
 4983500    1443.6087   -756.11247    291910.84    15.523943 
 4984000    1510.9665   -747.34694    319646.66    15.466918 
 4984500    1570.7182   -752.94374    317884.22    15.208737 
 4985000    1514.5275   -746.36401    314036.32    15.346924 
 4985500    1378.6558   -759.32183    304489.33    15.042654 
 4986000    1595.2541   -762.58061    300129.45    15.160493 
 4986500    1420.7415   -760.90902    291698.24    15.304642 
 4987000    1668.3962   -764.42643    291202.31    14.957615 
 4987500    1581.2213   -769.49542    285403.28    15.054574 
 4988000     1514.365    -770.9334    277131.81    15.193086 
 4988500    1471.9892   -765.85378    289838.43    15.097193 
 4989000    1627.8758   -768.36449    286969.16     15.20275 
 4989500    1451.4306   -764.22057     297468.3    15.116158 
 4990000    1461.2052   -759.44857    305865.35    15.154935 
 4990500    1475.9005   -753.47609    311191.08    15.193294 
 4991000    1480.3055   -746.89001    321582.92    15.325321 
 4991500    1450.3641   -759.05153    308510.28    15.034348 
 4992000    1479.2733   -761.82598    301096.42     15.02111 
 4992500    1477.0931   -762.92576    287305.15     15.35877 
 4993000    1516.5746   -767.17308    272558.42    15.445011 
 4993500    1500.8283   -761.22941    290429.71    15.196322 
 4994000     1536.252   -756.75528    306403.87    15.300546 
 4994500    1563.6825   -758.75206    310034.74     15.00406 
 4995000    1494.6926   -747.30759     318858.9    15.398814 
 4995500    1565.4013   -756.56422    307154.84    15.203399 
 4996000    1498.6981   -762.84716    298510.26    15.178131 
 4996500    1512.4383   -753.75601    289190.93    15.585719 
 4997000    1411.7336   -755.10877    277407.61    15.738175 
 4997500    1433.4507   -767.85404    280825.63    15.240368 
 4998000    1488.3949   -766.69478     286677.4    15.153438 
 4998500    1441.8014   -761.71886    296382.13    15.021656 
 4999000    1557.6345   -755.35111    309561.38    15.081719 
 4999500    1513.0041   -750.58646    309249.94    15.388088 
 5000000    1489.9988   -759.99317    298524.19    15.270246 
Loop time of 2008.11 on 8 procs for 5000000 steps with 256 atoms

Performance: 430.256 ns/day, 0.056 hours/ns, 2489.907 timesteps/s
96.8% CPU use with 8 MPI tasks x no OpenMP threads

MPI task timing breakdown:
Section |  min time  |  avg time  |  max time  |%varavg| %total
---------------------------------------------------------------
Pair    | 868.39     | 903.91     | 939.59     |  81.9 | 45.01
Neigh   | 18.827     | 19.326     | 20.015     |   9.6 |  0.96
Comm    | 219.91     | 258.75     | 298.57     | 164.7 | 12.89
Output  | 35.481     | 35.49      | 35.529     |   0.3 |  1.77
Modify  | 770.32     | 773.98     | 776.31     |   6.7 | 38.54
Other   |            | 16.66      |            |       |  0.83

Nlocal:    32 ave 32 max 32 min
Histogram: 8 0 0 0 0 0 0 0 0 0
Nghost:    1031.38 ave 1037 max 1027 min
Histogram: 1 2 0 0 1 2 0 0 0 2
Neighs:    2817.75 ave 3068 max 2550 min
Histogram: 1 1 0 1 1 1 1 0 0 2

Total # of neighbors = 22542
Ave neighs/atom = 88.0547
Neighbor list builds = 175853
Dangerous builds = 0

write_data	data.final.${p_id}
write_data	data.final.0
Total wall time: 0:33:28
